# vtk DataFile Version 2.0
Radiative paths
ASCII
DATASET POLYDATA
POINTS 373 float
-0.414802 0.817818 0.324021
0.408820 -0.005803 0.324021
-0.015988 1.490000 0.040815
-0.018828 1.500000 0.038922
-1.452162 0.803233 0.384093
-0.628541 -0.020389 0.384093
-0.587951 0.794869 0.084398
0.235671 -0.028753 0.084398
-1.196825 0.831346 -0.226130
-0.373204 0.007725 -0.226130
0.047762 1.490000 0.054514
0.050602 1.500000 0.056407
-0.448032 0.797162 -0.314382
0.375590 -0.026459 -0.314382
-0.645477 0.833308 -0.216094
0.178144 0.009687 -0.216094
0.038008 1.490000 0.064179
0.037061 1.500000 0.066072
-0.903315 0.846048 -0.054522
-0.079693 0.022427 -0.054522
0.059237 1.490000 -0.054522
0.060184 1.500000 -0.054522
-1.137197 0.814500 -0.049474
-0.313576 -0.009121 -0.049474
-0.029743 1.490000 -0.049474
-0.027849 1.500000 -0.049474
-0.211316 0.849304 -0.086763
0.612305 0.025683 -0.086763
0.057817 1.490000 0.051859
-0.353056 0.404949 0.154577
-0.975880 0.821526 -0.171136
-0.152259 -0.002095 -0.171136
-0.011008 1.490000 -0.029884
0.130708 -0.006992 0.111831
-0.692914 0.816629 0.111831
-0.762533 0.858370 0.480178
0.061089 0.034749 0.480178
0.061089 1.490000 0.066887
0.061089 1.500000 0.064047
-0.115854 0.825882 0.450459
0.707767 0.002260 0.450459
0.003570 1.490000 0.027941
-0.001163 1.500000 0.025101
-0.924168 0.841871 -0.201368
-0.100547 0.018250 -0.201368
0.038779 1.490000 -0.062042
0.039726 1.500000 -0.061096
-1.071115 0.828668 0.225525
-0.247493 0.005046 0.225525
0.033658 1.490000 -0.055626
0.033658 1.490000 -0.055626
0.035551 1.500000 -0.057519
-0.856098 0.804094 -0.390759
-0.032476 -0.019527 -0.390759
-0.032476 1.490000 0.037947
-0.032476 1.500000 0.040787
-0.197867 0.859518 -0.269434
0.625755 0.035896 -0.269434
0.075134 1.490000 0.005877
0.071347 1.500000 0.007770
-0.689537 0.819896 0.023879
0.134084 -0.003726 0.023879
-0.007322 1.490000 0.023879
-0.007322 1.490000 0.023879
-0.008269 1.500000 0.023879
-0.641396 0.842553 0.029199
0.182225 0.018932 0.029199
0.042964 1.490000 0.029199
0.042017 1.500000 0.029199
-1.098644 0.821852 -0.242083
-0.275023 -0.001769 -0.242083
0.007419 1.490000 0.040358
0.009312 1.500000 0.042252
-0.645133 0.847675 -0.345326
0.178489 0.024053 -0.345326
0.039713 1.490000 -0.067774
0.038766 1.500000 -0.065880
-1.439226 0.813390 -0.036307
-0.615604 -0.010232 -0.036307
-0.047517 1.490000 -0.036307
-0.043730 1.500000 -0.036307
-0.357554 0.848371 0.431977
0.466068 0.024749 0.431977
0.049936 1.490000 0.015846
0.047096 1.500000 0.013006
-0.538883 0.820352 0.075388
0.284738 -0.003269 0.075388
0.002013 1.490000 -0.065975
0.000119 1.500000 -0.066921
-1.396196 0.822638 0.061394
-0.572575 -0.000983 0.061394
-0.007989 1.490000 0.061394
-0.004202 1.500000 0.061394
-0.581205 0.798298 0.407331
0.242417 -0.025324 0.407331
-0.290840 0.801249 -0.429565
0.532782 -0.022373 -0.429565
-1.354696 0.832365 0.428390
-0.531075 0.008743 0.428390
0.029827 1.490000 0.007713
0.033614 1.500000 0.004873
-1.056789 0.839079 -0.136866
-0.233168 0.015458 -0.136866
0.046012 1.490000 0.002724
0.047906 1.500000 0.003671
-1.572655 0.822981 0.343982
-0.749033 -0.000640 0.343982
-0.043464 1.490000 0.061754
-0.038730 1.500000 0.059861
-0.551393 0.817453 -0.143158
0.272228 -0.006169 -0.143158
-0.011046 1.490000 -0.001521
-0.012939 1.500000 -0.000574
-1.145181 0.815143 0.447618
-0.321560 -0.008478 0.447618
-0.037848 1.490000 0.022051
-0.035955 1.500000 0.019211
-0.544833 0.821707 -0.431407
0.278788 -0.001914 -0.431407
-0.003681 1.490000 -0.007704
-0.005574 1.500000 -0.004864
-0.795609 0.830564 0.395913
0.028012 0.006943 0.395913
0.028012 1.490000 -0.025275
0.028012 1.500000 -0.028115
-0.521266 0.837168 -0.318605
0.302355 0.013547 -0.318605
0.022813 1.490000 -0.039064
0.020920 1.500000 -0.037170
-0.434403 0.802158 -0.428307
0.389219 -0.021463 -0.428307
-1.597922 0.813109 -0.434792
-0.774301 -0.010512 -0.434792
-0.064059 1.490000 -0.008646
-0.059326 1.500000 -0.005806
-0.743664 0.791967 0.263838
0.079957 -0.031655 0.263838
-0.992180 0.816119 -0.179809
-0.168559 -0.007502 -0.179809
-0.026795 1.490000 -0.038045
-0.025849 1.500000 -0.037098
-1.296286 0.804867 -0.225088
-0.472665 -0.018755 -0.225088
-1.344094 0.833836 -0.013543
-0.520472 0.010215 -0.013543
0.039873 1.490000 -0.013543
0.039873 1.490000 -0.013543
0.043660 1.500000 -0.013543
-0.968303 0.824474 -0.300652
-0.144682 0.000852 -0.300652
-0.003709 1.490000 -0.018707
-0.002762 1.500000 -0.016813
-0.123211 0.817821 0.293225
0.700410 -0.005800 0.293225
-0.007602 1.490000 0.010021
-0.012336 1.500000 0.008127
-1.208686 0.830740 -0.076332
-0.385064 0.007119 -0.076332
0.036074 1.490000 0.064047
0.036074 1.490000 0.064047
0.038914 1.500000 0.064994
-0.206849 0.849998 0.234937
0.616773 0.026377 0.234937
0.062547 1.490000 -0.042176
0.058761 1.500000 -0.044069
-1.240041 0.827163 -0.431851
-0.416419 0.003542 -0.431851
0.005735 1.490000 -0.009697
0.008575 1.500000 -0.006857
-0.646315 0.842095 -0.174979
0.177307 0.018474 -0.174979
0.038002 1.490000 -0.035675
0.037056 1.500000 -0.034728
-0.580969 0.812109 0.491519
0.242652 -0.011513 0.491519
-1.120705 0.822546 -0.445086
-0.297083 -0.001075 -0.445086
-0.014773 1.490000 -0.021620
0.269463 -0.011249 0.404734
-0.554158 0.812373 0.404734
-1.100687 0.828263 0.187405
-0.277066 0.004642 0.187405
0.004162 1.490000 0.046791
0.006055 1.500000 0.045845
-1.112773 0.822033 -0.022943
-0.289152 -0.001589 -0.022943
-0.006744 1.490000 -0.022943
-0.006744 1.490000 -0.022943
-0.004851 1.500000 -0.022943
-1.239309 0.826302 0.016841
-0.415688 0.002681 0.016841
0.006711 1.490000 0.016841
0.009551 1.500000 0.016841
-0.845610 0.809572 -0.239978
-0.021989 -0.014049 -0.239978
-0.021989 1.490000 0.044789
-0.021989 1.500000 0.046682
-1.000212 0.814741 -0.207359
-0.176591 -0.008880 -0.207359
-0.034697 1.490000 -0.065465
-0.033750 1.500000 -0.064518
-1.109598 0.822193 0.127152
-0.285977 -0.001428 0.127152
-0.003600 1.490000 -0.014036
-0.001707 1.500000 -0.014983
-1.226694 0.829114 -0.132871
-0.403072 0.005493 -0.132871
0.018528 1.490000 0.007662
0.021368 1.500000 0.008609
-0.637114 0.844773 0.424940
0.186507 0.021152 0.424940
0.047456 1.490000 0.007787
0.046510 1.500000 0.004947
-1.221291 0.829327 0.267351
-0.397670 0.005706 0.267351
0.023870 1.490000 -0.013676
0.026710 1.500000 -0.015569
-0.211931 0.851853 -0.056555
0.611690 0.028232 -0.056555
0.058167 1.490000 -0.056555
0.054381 1.500000 -0.056555
-0.870920 0.809850 -0.464288
-0.047299 -0.013771 -0.464288
-1.580854 0.815433 0.033953
-0.757233 -0.008188 0.033953
-0.048091 1.490000 0.033953
-0.043357 1.500000 0.033953
-0.340344 0.853618 -0.401146
0.483277 0.029996 -0.401146
0.068636 1.490000 0.013495
0.065796 1.500000 0.016335
-0.814571 0.826700 0.277563
0.009050 0.003079 0.277563
0.009050 1.490000 -0.003961
0.009050 1.500000 -0.005855
-1.166471 0.795623 0.369347
-0.342850 -0.027998 0.369347
-0.537581 0.822828 0.266812
0.286041 -0.000793 0.266812
0.003784 1.490000 -0.015445
0.003784 1.490000 -0.015445
0.001891 1.500000 -0.017338
-1.569928 0.808335 -0.371443
-0.746307 -0.015287 -0.371443
-0.033805 1.490000 0.056059
-0.029071 1.500000 0.058899
-1.124612 0.813063 0.236112
-0.300990 -0.010558 0.236112
-0.016885 1.490000 -0.047994
0.266058 -0.004414 -0.330936
-0.557564 0.819208 -0.330936
-1.586580 0.814082 -0.136574
-0.762959 -0.009539 -0.136574
-0.053177 1.490000 0.005382
-0.048444 1.500000 0.006329
-0.427928 0.804218 0.112978
0.395693 -0.019403 0.112978
-0.377655 0.839995 0.454046
0.445966 0.016373 0.454046
0.027456 1.490000 0.035536
0.024616 1.500000 0.032696
-0.075586 0.851206 -0.290797
0.748035 0.027585 -0.290797
0.055825 1.490000 -0.013913
0.051092 1.500000 -0.012020
-0.375152 0.846344 -0.484220
0.448469 0.022722 -0.484220
0.031762 1.490000 -0.067513
0.028922 1.500000 -0.064673
-0.079420 0.850103 0.186700
0.744201 0.026481 0.186700
0.051469 1.490000 0.048153
0.046736 1.500000 0.047207
-0.204266 0.863820 -0.348354
0.619355 0.040198 -0.348354
0.070364 1.490000 -0.073858
0.066577 1.500000 -0.071965
-1.151707 0.804829 0.396981
-0.328086 -0.018793 0.396981
-0.095648 0.833863 0.096198
0.727973 0.010242 0.096198
0.027555 1.490000 -0.043886
0.022821 1.500000 -0.044832
-0.621633 0.851855 -0.005023
0.201988 0.028233 -0.005023
0.063608 1.490000 -0.005023
0.062661 1.500000 -0.005023
-1.003513 0.813614 -0.208546
-0.179892 -0.010007 -0.208546
-0.037891 1.490000 -0.066546
-0.036945 1.500000 -0.065599
-1.324319 0.836348 -0.264480
-0.500697 0.012726 -0.264480
0.058697 1.490000 0.015217
0.062484 1.500000 0.017111
-0.256503 0.822649 0.134531
0.567118 -0.000972 0.134531
0.002537 1.490000 -0.006615
-0.001250 1.500000 -0.007561
-0.848376 0.819663 0.342141
-0.024754 -0.003958 0.342141
-0.024754 1.490000 0.059285
-0.024754 1.500000 0.057392
-1.297613 0.808205 0.411129
-0.473991 -0.015416 0.411129
-0.867003 0.800997 -0.400062
-0.043381 -0.022624 -0.400062
-0.530414 0.824455 0.400768
0.293208 0.000834 0.400768
0.011259 1.490000 -0.022155
0.009366 1.500000 -0.024995
-0.665326 0.827811 -0.078734
0.158296 0.004190 -0.078734
0.017639 1.490000 0.061922
0.016692 1.500000 0.062869
-1.090114 0.832332 -0.313503
-0.266492 0.008711 -0.313503
0.013965 1.490000 -0.033046
0.015859 1.500000 -0.031152
-1.478342 0.828007 0.388836
-0.654720 0.004386 0.388836
0.048470 1.490000 -0.033078
0.048470 1.490000 -0.033078
0.053204 1.500000 -0.035918
-0.620267 0.852996 -0.286391
0.203354 0.029375 -0.286391
0.065082 1.490000 -0.009846
0.064135 1.500000 -0.007953
-0.775327 0.843625 0.053835
0.048294 0.020004 0.053835
0.048294 1.490000 0.053835
0.048294 1.500000 0.053835
-0.944080 0.825343 0.228205
-0.120458 0.001722 0.228205
0.020432 1.490000 -0.053576
0.160160 0.014005 -0.333031
-0.663462 0.837626 -0.333031
-0.744922 0.796356 -0.188854
0.078699 -0.027265 -0.188854
-0.732308 0.799244 0.133455
0.091313 -0.024377 0.133455
-0.588290 0.795573 0.100494
0.235331 -0.028048 0.100494
-0.067915 0.848467 0.377978
0.755707 0.024846 0.377978
0.062200 1.490000 -0.038126
0.062200 1.490000 -0.038126
0.057467 1.500000 -0.040966
-1.104364 0.826583 -0.301757
-0.280743 0.002962 -0.301757
0.000803 1.490000 -0.020211
0.002696 1.500000 -0.018318
-1.302025 0.810594 0.433376
-0.478403 -0.013027 0.433376
-0.708311 0.808674 -0.263222
0.115311 -0.014947 -0.263222
-0.027158 1.490000 0.021715
-0.028104 1.500000 0.023608
-0.842253 0.826991 0.494806
-0.018631 0.003369 0.494806
-0.018631 1.490000 0.072603
-0.018631 1.500000 0.069763
-0.531844 0.827732 0.051875
0.291777 0.004111 0.051875
0.010449 1.490000 0.051875
0.008555 1.500000 0.051875
-1.157038 0.808757 -0.149963
-0.333417 -0.014864 -0.149963
-0.493256 0.839038 0.367955
0.330365 0.015417 0.367955
0.051177 1.490000 -0.050826
-0.226177 0.025103 -0.466857
-1.049798 0.848724 -0.466857
LINES 100 473
4 0 1 2 3
2 4 5
2 6 7
4 8 9 10 11
2 12 13
4 14 15 16 17
4 18 19 20 21
4 22 23 24 25
4 26 27 28 29
5 30 31 32 33 34
4 35 36 37 38
4 39 40 41 42
4 43 44 45 46
5 47 48 49 50 51
4 52 53 54 55
4 56 57 58 59
5 60 61 62 63 64
4 65 66 67 68
4 69 70 71 72
4 73 74 75 76
4 77 78 79 80
4 81 82 83 84
4 85 86 87 88
4 89 90 91 92
2 93 94
2 95 96
4 97 98 99 100
4 101 102 103 104
4 105 106 107 108
4 109 110 111 112
4 113 114 115 116
4 117 118 119 120
4 121 122 123 124
4 125 126 127 128
2 129 130
4 131 132 133 134
2 135 136
4 137 138 139 140
2 141 142
5 143 144 145 146 147
4 148 149 150 151
4 152 153 154 155
5 156 157 158 159 160
4 161 162 163 164
4 165 166 167 168
4 169 170 171 172
2 173 174
5 175 176 177 178 179
4 180 181 182 183
5 184 185 186 187 188
4 189 190 191 192
4 193 194 195 196
4 197 198 199 200
4 201 202 203 204
4 205 206 207 208
4 209 210 211 212
4 213 214 215 216
4 217 218 219 220
2 221 222
4 223 224 225 226
4 227 228 229 230
4 231 232 233 234
2 235 236
5 237 238 239 240 241
4 242 243 244 245
5 246 247 248 249 250
4 251 252 253 254
2 255 256
4 257 258 259 260
4 261 262 263 264
4 265 266 267 268
4 269 270 271 272
4 273 274 275 276
2 277 278
4 279 280 281 282
4 283 284 285 286
4 287 288 289 290
4 291 292 293 294
4 295 296 297 298
4 299 300 301 302
2 303 304
2 305 306
4 307 308 309 310
4 311 312 313 314
4 315 316 317 318
5 319 320 321 322 323
4 324 325 326 327
4 328 329 330 331
5 332 333 334 335 336
2 337 338
2 339 340
2 341 342
5 343 344 345 346 347
4 348 349 350 351
2 352 353
4 354 355 356 357
4 358 359 360 361
4 362 363 364 365
2 366 367
5 368 369 370 371 372
CELL_DATA 100
SCALARS Radiative_path_type float 1
LOOKUP_TABLE path_type
0.5
1.0
1.0
0.5
1.0
0.5
0.5
0.5
0.75
0.75
0.5
0.5
0.5
0.5
0.5
0.5
0.5
0.5
0.5
0.5
0.5
0.5
0.5
0.5
1.0
1.0
0.5
0.5
0.5
0.5
0.5
0.5
0.5
0.5
1.0
0.5
1.0
0.5
1.0
0.5
0.5
0.5
0.5
0.5
0.5
0.5
1.0
0.75
0.5
0.5
0.5
0.5
0.5
0.5
0.5
0.5
0.5
0.5
1.0
0.5
0.5
0.5
1.0
0.5
0.5
0.75
0.5
1.0
0.5
0.5
0.5
0.5
0.5
1.0
0.5
0.5
0.5
0.5
0.5
0.5
1.0
1.0
0.5
0.5
0.5
0.5
0.5
0.5
0.75
1.0
1.0
1.0
0.5
0.5
1.0
0.5
0.5
0.5
1.0
0.75
LOOKUP_TABLE path_type 5
1.0 0.0 0.0 1.0
0.0 1.0 0.0 1.0
0.0 0.0 1.0 1.0
0.0 1.0 1.0 1.0
1.0 1.0 0.0 1.0
