# vtk DataFile Version 2.0
Radiative paths
ASCII
DATASET POLYDATA
POINTS 300 float
1.178180 0.007541 0.076522
-0.008638 0.007541 0.076522
-0.008638 1.500000 -0.017254
1.180499 0.000873 -0.646041
-0.006319 0.000873 -0.646041
-0.006319 1.500000 0.013325
1.129471 0.044743 -0.422335
-0.057347 0.044743 -0.422335
-0.057347 1.176998 -0.066618
1.217808 -0.033514 -0.272257
0.030990 -0.033514 -0.272257
0.030990 1.132765 -0.052414
1.218077 -0.011841 0.537854
0.031259 -0.011841 0.537854
0.031259 1.120415 0.182137
1.137139 0.032609 -0.610497
-0.049679 0.032609 -0.610497
-0.049679 1.118989 -0.132672
1.224202 -0.034296 -0.144572
0.037384 -0.034296 -0.144572
0.037384 1.150187 -0.070147
1.172138 0.016576 -0.123954
-0.014680 0.016576 -0.123954
-0.014680 1.201058 -0.049529
1.239643 -0.055276 0.665281
0.052825 -0.055276 0.665281
0.052825 1.031103 0.187455
1.245456 -0.068968 0.648589
0.058638 -0.068968 0.648589
0.058638 1.017411 0.170763
1.150036 0.032988 0.032722
-0.036782 0.032988 0.032722
-0.036782 1.217470 -0.041703
1.248168 -0.054371 0.502873
0.061350 -0.054371 0.502873
0.061350 1.077884 0.147156
1.218518 -0.032613 -0.080705
0.031700 -0.032613 -0.080705
0.031700 1.151869 -0.006280
1.165810 0.026830 -0.311674
-0.021008 0.026830 -0.311674
-0.021008 1.193108 -0.091830
1.217127 -0.033765 -0.040190
0.030309 -0.033765 -0.040190
0.030309 1.150717 0.034235
1.213701 -0.046449 -0.620914
0.026883 -0.046449 -0.620914
0.026883 1.039930 -0.143088
1.194244 -0.003593 -0.484590
0.007426 -0.003593 -0.484590
0.007426 1.500000 -0.012211
1.150202 0.040506 0.478016
-0.036616 0.040506 0.478016
-0.036616 1.172762 0.122299
1.137254 0.030918 -0.606938
-0.049564 0.030918 -0.606938
-0.049564 1.117297 -0.129112
1.185983 0.006486 -0.489110
-0.000835 0.006486 -0.489110
-0.000835 1.500000 -0.019898
1.190398 -0.004041 0.087019
0.003580 -0.004041 0.087019
0.003580 1.500000 -0.007485
1.227118 -0.060554 0.622172
0.040300 -0.060554 0.622172
0.040300 1.025825 0.144346
1.159350 0.030039 -0.134296
-0.027468 0.030039 -0.134296
-0.027468 1.214521 -0.059871
1.218591 -0.028889 0.141145
0.031773 -0.028889 0.141145
0.031773 1.155593 0.066720
1.210580 -0.027498 0.035523
0.023762 -0.027498 0.035523
0.023762 1.156984 -0.038902
1.126338 0.057987 0.263875
-0.060480 0.057987 0.263875
-0.060480 1.224266 0.044031
1.233935 -0.043524 -0.489916
0.047117 -0.043524 -0.489916
0.047117 1.088732 -0.134199
1.252197 -0.048342 0.712226
0.065379 -0.048342 0.712226
0.065379 1.038037 0.234401
1.168533 0.019925 0.119785
-0.018285 0.019925 0.119785
-0.018285 1.204407 0.045361
1.193498 -0.010687 -0.652045
0.006680 -0.010687 -0.652045
0.006680 1.500000 0.012405
1.216168 -0.034981 -0.653117
0.029350 -0.034981 -0.653117
0.029350 1.051398 -0.175291
1.214215 -0.050948 -0.611962
0.027397 -0.050948 -0.611962
0.027397 1.035431 -0.134136
1.254271 -0.064011 0.307314
0.067453 -0.064011 0.307314
0.067453 1.102268 0.087470
1.228381 -0.031342 0.340853
0.041563 -0.031342 0.340853
0.041563 1.134936 0.121010
1.168834 0.034380 0.520677
-0.017985 0.034380 0.520677
-0.017985 1.166635 0.164960
1.235943 -0.051516 -0.057736
0.049125 -0.051516 -0.057736
0.049125 1.132966 0.016689
1.143593 0.034063 -0.629834
-0.043225 0.034063 -0.629834
-0.043225 1.120442 -0.152008
1.250593 -0.045985 0.713603
0.063775 -0.045985 0.713603
0.063775 1.040394 0.235777
1.169071 0.037542 -0.531535
-0.017747 0.037542 -0.531535
-0.017747 1.169798 -0.175818
1.151197 0.018331 -0.410754
-0.035621 0.018331 -0.410754
-0.035621 1.150587 -0.055037
1.172825 0.019363 0.309927
-0.013993 0.019363 0.309927
-0.013993 1.185641 0.090083
1.172257 0.012615 0.271069
-0.014561 0.012615 0.271069
-0.014561 1.500000 -0.009303
1.207672 -0.022481 -0.469268
0.020854 -0.022481 -0.469268
0.020854 1.109774 -0.113551
1.163385 0.036593 -0.509545
-0.023433 0.036593 -0.509545
-0.023433 1.168848 -0.153828
1.207174 -0.022022 0.275816
0.020356 -0.022022 0.275816
0.020356 1.144257 0.055973
1.189442 -0.016950 -0.627731
0.002624 -0.016950 -0.627731
0.002624 1.069429 -0.149905
1.239767 -0.061538 -0.651352
0.052949 -0.061538 -0.651352
0.052949 1.024842 -0.173526
1.171707 0.000736 0.423174
-0.015111 0.000736 0.423174
-0.015111 1.132991 0.067457
1.155860 0.028367 -0.647350
-0.030958 0.028367 -0.647350
-0.030958 1.114746 -0.169524
1.143921 0.051688 -0.325375
-0.042897 0.051688 -0.325375
-0.042897 1.217966 -0.105531
1.162730 0.014577 0.230048
-0.024088 0.014577 0.230048
-0.024088 1.180856 0.010205
1.210553 -0.022606 -0.112972
0.023735 -0.022606 -0.112972
0.023735 1.161877 -0.038547
1.190277 -0.016274 0.430989
0.003459 -0.016274 0.430989
0.003459 1.115981 0.075273
1.218154 -0.031406 0.094117
0.031336 -0.031406 0.094117
0.031336 1.153076 0.019693
1.138088 0.057776 0.670072
-0.048730 0.057776 0.670072
-0.048730 1.144155 0.192246
1.129740 0.059581 0.132298
-0.057078 0.059581 0.132298
-0.057078 1.244063 0.057873
1.198217 -0.015524 -0.261927
0.011399 -0.015524 -0.261927
0.011399 1.150754 -0.042084
1.248487 -0.051774 -0.512205
0.061668 -0.051774 -0.512205
0.061668 1.080482 -0.156488
1.158607 0.024528 0.034743
-0.028211 0.024528 0.034743
-0.028211 1.209010 -0.039682
1.242458 -0.038527 0.534255
0.055640 -0.038527 0.534255
0.055640 1.093728 0.178538
1.249214 -0.058405 -0.493526
0.062396 -0.058405 -0.493526
0.062396 1.073851 -0.137809
1.151135 0.057315 -0.701432
-0.035683 0.057315 -0.701432
-0.035683 1.143694 -0.223606
1.234940 -0.055092 0.250272
0.048122 -0.055092 0.250272
0.048122 1.111187 0.030429
1.203920 -0.038691 -0.614260
0.017102 -0.038691 -0.614260
0.017102 1.047688 -0.136434
1.187248 -0.003738 -0.460786
0.000430 -0.003738 -0.460786
0.000430 1.500000 0.011638
1.245002 -0.039425 0.714629
0.058184 -0.039425 0.714629
0.058184 1.046954 0.236804
1.191515 -0.008332 0.036555
0.004697 -0.008332 0.036555
0.004697 1.176150 -0.037870
1.136067 0.054036 -0.295435
-0.050751 0.054036 -0.295435
-0.050751 1.220314 -0.075591
1.169117 0.015935 -0.462912
-0.017701 0.015935 -0.462912
-0.017701 1.500000 0.003332
1.223222 -0.050407 0.635567
0.036404 -0.050407 0.635567
0.036404 1.035973 0.157741
1.202809 -0.041253 0.605676
0.015991 -0.041253 0.605676
0.015991 1.045126 0.127850
1.210431 -0.024844 0.661914
0.023613 -0.024844 0.661914
0.023613 1.061535 0.184088
1.256956 -0.055852 -0.706972
0.070138 -0.055852 -0.706972
0.070138 1.030527 -0.229147
1.164576 0.011322 -0.222738
-0.022242 0.011322 -0.222738
-0.022242 1.177601 -0.002895
1.238865 -0.051778 -0.100165
0.052047 -0.051778 -0.100165
0.052047 1.132704 -0.025740
1.201886 -0.014734 0.663676
0.015068 -0.014734 0.663676
0.015068 1.500000 -0.002554
1.247225 -0.064173 -0.268413
0.060407 -0.064173 -0.268413
0.060407 1.102105 -0.048569
1.187680 -0.013509 0.215738
0.000862 -0.013509 0.215738
0.000862 1.152770 -0.004105
1.141095 0.041746 0.029523
-0.045723 0.041746 0.029523
-0.045723 1.226228 -0.044902
1.244531 -0.065985 -0.244262
0.057713 -0.065985 -0.244262
0.057713 1.100294 -0.024418
1.209109 -0.019809 -0.298000
0.022291 -0.019809 -0.298000
0.022291 1.146470 -0.078157
1.147326 0.054405 0.685356
-0.039492 0.054405 0.685356
-0.039492 1.140784 0.207530
1.173007 0.002545 0.221693
-0.013811 0.002545 0.221693
-0.013811 1.168823 0.001849
1.133263 0.047578 -0.246038
-0.053555 0.047578 -0.246038
-0.053555 1.213856 -0.026195
1.215630 -0.028200 0.104894
0.028812 -0.028200 0.104894
0.028812 1.156282 0.030469
1.173208 0.030432 0.522706
-0.013610 0.030432 0.522706
-0.013610 1.162688 0.166989
1.166684 0.013211 0.446126
-0.020134 0.013211 0.446126
-0.020134 1.145466 0.090409
1.183080 -0.003350 0.244798
-0.003738 -0.003350 0.244798
-0.003738 1.162928 0.024955
1.151543 0.048126 -0.347633
-0.035275 0.048126 -0.347633
-0.035275 1.214405 -0.127790
1.222417 -0.031996 0.305190
0.035599 -0.031996 0.305190
0.035599 1.134283 0.085346
1.222884 -0.055440 -0.415112
0.036066 -0.055440 -0.415112
0.036066 1.076815 -0.059395
1.165034 0.023054 0.113779
-0.021784 0.023054 0.113779
-0.021784 1.207537 0.039354
1.188793 0.021273 0.713021
0.001975 0.021273 0.713021
0.001975 1.107652 0.235195
1.239606 -0.059522 0.457913
0.052788 -0.059522 0.457913
0.052788 1.072734 0.102196
1.204776 -0.018494 -0.472297
0.017958 -0.018494 -0.472297
0.017958 1.500000 0.004763
1.209316 -0.024201 0.067844
0.022498 -0.024201 0.067844
0.022498 1.160281 -0.006581
1.124770 0.061884 0.089690
-0.062048 0.061884 0.089690
-0.062048 1.246366 0.015265
1.190203 0.011603 0.694538
0.003385 0.011603 0.694538
0.003385 1.097982 0.216713
1.210174 -0.022219 0.113086
0.023356 -0.022219 0.113086
0.023356 1.162263 0.038661
1.251561 -0.060465 0.311493
0.064743 -0.060465 0.311493
0.064743 1.105814 0.091650
LINES 100 400
3 0 1 2
3 3 4 5
3 6 7 8
3 9 10 11
3 12 13 14
3 15 16 17
3 18 19 20
3 21 22 23
3 24 25 26
3 27 28 29
3 30 31 32
3 33 34 35
3 36 37 38
3 39 40 41
3 42 43 44
3 45 46 47
3 48 49 50
3 51 52 53
3 54 55 56
3 57 58 59
3 60 61 62
3 63 64 65
3 66 67 68
3 69 70 71
3 72 73 74
3 75 76 77
3 78 79 80
3 81 82 83
3 84 85 86
3 87 88 89
3 90 91 92
3 93 94 95
3 96 97 98
3 99 100 101
3 102 103 104
3 105 106 107
3 108 109 110
3 111 112 113
3 114 115 116
3 117 118 119
3 120 121 122
3 123 124 125
3 126 127 128
3 129 130 131
3 132 133 134
3 135 136 137
3 138 139 140
3 141 142 143
3 144 145 146
3 147 148 149
3 150 151 152
3 153 154 155
3 156 157 158
3 159 160 161
3 162 163 164
3 165 166 167
3 168 169 170
3 171 172 173
3 174 175 176
3 177 178 179
3 180 181 182
3 183 184 185
3 186 187 188
3 189 190 191
3 192 193 194
3 195 196 197
3 198 199 200
3 201 202 203
3 204 205 206
3 207 208 209
3 210 211 212
3 213 214 215
3 216 217 218
3 219 220 221
3 222 223 224
3 225 226 227
3 228 229 230
3 231 232 233
3 234 235 236
3 237 238 239
3 240 241 242
3 243 244 245
3 246 247 248
3 249 250 251
3 252 253 254
3 255 256 257
3 258 259 260
3 261 262 263
3 264 265 266
3 267 268 269
3 270 271 272
3 273 274 275
3 276 277 278
3 279 280 281
3 282 283 284
3 285 286 287
3 288 289 290
3 291 292 293
3 294 295 296
3 297 298 299
CELL_DATA 100
SCALARS Radiative_path_type float 1
LOOKUP_TABLE path_type
0.5
0.5
0.75
0.75
0.75
0.75
0.75
0.75
0.75
0.75
0.75
0.75
0.75
0.75
0.75
0.75
0.5
0.75
0.75
0.5
0.5
0.75
0.75
0.75
0.75
0.75
0.75
0.75
0.75
0.5
0.75
0.75
0.75
0.75
0.75
0.75
0.75
0.75
0.75
0.75
0.75
0.5
0.75
0.75
0.75
0.75
0.75
0.75
0.75
0.75
0.75
0.75
0.75
0.75
0.75
0.75
0.75
0.75
0.75
0.75
0.75
0.75
0.75
0.75
0.5
0.75
0.75
0.75
0.5
0.75
0.75
0.75
0.75
0.75
0.75
0.5
0.75
0.75
0.75
0.75
0.75
0.75
0.75
0.75
0.75
0.75
0.75
0.75
0.75
0.75
0.75
0.75
0.75
0.75
0.5
0.75
0.75
0.75
0.75
0.75
LOOKUP_TABLE path_type 5
1.0 0.0 0.0 1.0
0.0 1.0 0.0 1.0
0.0 0.0 1.0 1.0
0.0 1.0 1.0 1.0
1.0 1.0 0.0 1.0
