# vtk DataFile Version 2.0
Radiative paths
ASCII
DATASET POLYDATA
POINTS 300 float
-0.212114 1.155145 0.076520
-0.006805 -0.009225 0.076520
-1.500000 -0.009225 -0.017303
-0.205799 1.158191 -0.645958
-0.000489 -0.006179 -0.645958
-1.500000 -0.006179 0.013577
-0.245242 1.103707 -0.422171
-0.039933 -0.060663 -0.422171
-1.167909 -0.060663 -0.067799
-0.174752 1.198274 -0.272244
0.030558 0.033904 -0.272244
-1.131312 0.033904 -0.053231
-0.195558 1.195875 0.538076
0.009752 0.031505 0.538076
-1.118224 0.031505 0.183704
-0.233865 1.112537 -0.610200
-0.028555 -0.051833 -0.610200
-1.110828 -0.051833 -0.134181
-0.174278 1.204495 -0.144579
0.031032 0.040125 -0.144579
-1.148973 0.040125 -0.070435
-0.220463 1.148233 -0.123958
-0.015153 -0.016137 -0.123958
-1.195158 -0.016137 -0.049815
-0.155170 1.222090 0.665314
0.050140 0.057720 0.665314
-1.032133 0.057720 0.189294
-0.142349 1.229403 0.648521
0.062961 0.065033 0.648521
-1.019312 0.065033 0.172502
-0.235121 1.124984 0.032713
-0.029811 -0.039386 0.032713
-1.209816 -0.039386 -0.041431
-0.156361 1.230077 0.502979
0.048949 0.065707 0.502979
-1.079027 0.065707 0.148606
-0.175624 1.198826 -0.080703
0.029686 0.034456 -0.080703
-1.150320 0.034456 -0.006560
-0.229954 1.140881 -0.311711
-0.024644 -0.023489 -0.311711
-1.186514 -0.023489 -0.092698
-0.174461 1.197630 -0.040182
0.030849 0.033260 -0.040182
-1.149156 0.033260 0.033962
-0.162208 1.196060 -0.620680
0.043102 0.031690 -0.620680
-1.039171 0.031690 -0.144660
-0.202246 1.171952 -0.484634
0.003064 0.007582 -0.484634
-1.500000 0.007582 -0.012422
-0.242238 1.124151 0.478039
-0.036928 -0.040219 0.478039
-1.164904 -0.040219 0.123666
-0.232247 1.112861 -0.606619
-0.026937 -0.051509 -0.606619
-1.109210 -0.051509 -0.130600
-0.211478 1.162761 -0.489170
-0.006168 -0.001609 -0.489170
-1.500000 -0.001609 -0.019858
-0.201615 1.168305 0.087018
0.003695 0.003935 0.087018
-1.500000 0.003935 -0.007464
-0.149411 1.210728 0.621945
0.055899 0.046358 0.621945
-1.026374 0.046358 0.145925
-0.232731 1.134296 -0.134302
-0.027421 -0.030074 -0.134302
-1.207426 -0.030074 -0.060158
-0.179183 1.198441 0.141152
0.026127 0.034071 0.141152
-1.153878 0.034071 0.067008
-0.180144 1.190571 0.035514
0.025165 0.026201 0.035514
-1.154840 0.026201 -0.038629
-0.257857 1.099115 0.263851
-0.052547 -0.065255 0.263851
-1.214418 -0.065255 0.044838
-0.166026 1.215053 -0.489978
0.039284 0.050683 -0.489978
-1.088692 0.050683 -0.135606
-0.162521 1.233269 0.712543
0.042789 0.068899 0.712543
-1.039484 0.068899 0.236523
-0.223496 1.144359 0.119789
-0.018186 -0.020011 0.119789
-1.198191 -0.020011 0.045646
-0.195421 1.172137 -0.651999
0.009889 0.007767 -0.651999
-1.500000 0.007767 0.012101
-0.173354 1.196979 -0.653077
0.031956 0.032609 -0.653077
-1.050317 0.032609 -0.177057
-0.157918 1.197122 -0.611674
0.047392 0.032752 -0.611674
-1.034881 0.032752 -0.135654
-0.147337 1.237067 0.307345
0.057973 0.072697 0.307345
-1.103897 0.072697 0.088332
-0.177328 1.208168 0.340927
0.027981 0.043798 0.340927
-1.133889 0.043798 0.121915
-0.237316 1.142814 0.520842
-0.032006 -0.021556 0.520842
-1.159982 -0.021556 0.166470
-0.158375 1.217885 -0.057731
0.046935 0.053515 -0.057731
-1.133071 0.053515 0.016413
-0.235617 1.118551 -0.629653
-0.030307 -0.045819 -0.629653
-1.112580 -0.045819 -0.153634
-0.164695 1.231431 0.713928
0.040615 0.067061 0.713928
-1.041658 0.067061 0.237908
-0.240356 1.142648 -0.531736
-0.035047 -0.021722 -0.531736
-1.163022 -0.021722 -0.177364
-0.221056 1.127867 -0.410552
-0.015746 -0.036503 -0.410552
-1.143722 -0.036503 -0.056179
-0.223150 1.148540 0.309961
-0.017840 -0.015830 0.309961
-1.179711 -0.015830 0.090949
-0.216675 1.148825 0.271054
-0.011365 -0.015545 0.271054
-1.500000 -0.015545 -0.009554
-0.184842 1.187202 -0.469262
0.020468 0.022832 -0.469262
-1.107508 0.022832 -0.114889
-0.239159 1.137304 -0.509673
-0.033849 -0.027066 -0.509673
-1.161825 -0.027066 -0.155300
-0.185230 1.186642 0.275808
0.020080 0.022272 0.275808
-1.141791 0.022272 0.056795
-0.189184 1.169033 -0.627538
0.016125 0.004663 -0.627538
-1.066147 0.004663 -0.151518
-0.149167 1.223000 -0.651301
0.056143 0.058630 -0.651301
-1.026130 0.058630 -0.175282
-0.205248 1.149760 0.423013
0.000062 -0.014610 0.423013
-1.127914 -0.014610 0.068641
-0.230828 1.131052 -0.647275
-0.025518 -0.033318 -0.647275
-1.107791 -0.033318 -0.171256
-0.252671 1.116787 -0.325429
-0.047361 -0.047583 -0.325429
-1.209231 -0.047583 -0.106416
-0.218099 1.139428 0.229981
-0.012789 -0.024942 0.229981
-1.174659 -0.024942 0.010968
-0.184814 1.189947 -0.112974
0.020496 0.025577 -0.112974
-1.159510 0.025577 -0.038831
-0.189903 1.169718 0.430855
0.015407 0.005348 0.430855
-1.112569 0.005348 0.076483
-0.176760 1.198329 0.094117
0.028550 0.033959 0.094117
-1.151455 0.033959 0.019974
-0.258075 1.110266 0.670134
-0.052766 -0.054104 0.670134
-1.135038 -0.054104 0.194115
-0.259580 1.102224 0.132304
-0.054271 -0.062145 0.132304
-1.234276 -0.062145 0.058160
-0.191014 1.177234 -0.261901
0.014295 0.012864 -0.261901
-1.147575 0.012864 -0.042888
-0.158864 1.230059 -0.512341
0.046446 0.065690 -0.512341
-1.081530 0.065690 -0.157969
-0.227436 1.134255 0.034734
-0.022126 -0.030115 0.034734
-1.202131 -0.030115 -0.039409
-0.171242 1.222619 0.534465
0.034068 0.058249 0.534465
-1.093908 0.058249 0.180093
-0.152552 1.231584 -0.493600
0.052758 0.067214 -0.493600
-1.075218 0.067214 -0.139228
-0.258355 1.122855 -0.701683
-0.053045 -0.041515 -0.701683
-1.135318 -0.041515 -0.225663
-0.154943 1.217392 0.250231
0.050366 0.053022 0.250231
-1.111504 0.053022 0.031218
-0.169115 1.185685 -0.613986
0.036195 0.021315 -0.613986
-1.046078 0.021315 -0.137966
-0.201753 1.165248 -0.460751
0.003557 0.000878 -0.460751
-1.500000 0.000878 0.011616
-0.170683 1.225232 0.714960
0.034627 0.060862 0.714960
-1.047646 0.060862 0.238941
-0.197570 1.169903 0.036546
0.007739 0.005534 0.036546
-1.172266 0.005534 -0.037597
-0.254542 1.108951 -0.295451
-0.049232 -0.055419 -0.295451
-1.211103 -0.055419 -0.076438
-0.219670 1.145381 -0.462884
-0.014360 -0.018989 -0.462884
-1.500000 -0.018989 0.003855
-0.158936 1.205704 0.635421
0.046373 0.041334 0.635421
-1.035899 0.041334 0.159401
-0.166594 1.184943 0.605350
0.038716 0.020573 0.605350
-1.043557 0.020573 0.129330
-0.182767 1.190188 0.661927
0.022543 0.025818 0.661927
-1.059730 0.025818 0.185907
-0.155575 1.238790 -0.707257
0.049735 0.074420 -0.707257
-1.032538 0.074420 -0.231237
-0.215075 1.141602 -0.222662
-0.009765 -0.022768 -0.222662
-1.171636 -0.022768 -0.003650
-0.158258 1.220726 -0.100166
0.047052 0.056357 -0.100166
-1.132954 0.056357 -0.026023
-0.192000 1.180703 0.663700
0.013310 0.016333 0.663700
-1.500000 0.016333 -0.001904
-0.146847 1.230315 -0.268394
0.058463 0.065945 -0.268394
-1.103408 0.065945 -0.049382
-0.192441 1.166860 0.215653
0.012869 0.002490 0.215653
-1.149001 0.002490 -0.003359
-0.243073 1.115319 0.029513
-0.037763 -0.049051 0.029513
-1.217768 -0.049051 -0.044630
-0.144988 1.227949 -0.244213
0.060321 0.063579 -0.244213
-1.101549 0.063579 -0.025200
-0.187436 1.188229 -0.298020
0.017873 0.023859 -0.298020
-1.143997 0.023859 -0.079007
-0.255351 1.119565 0.685510
-0.050041 -0.044805 0.685510
-1.132314 -0.044805 0.209491
-0.207087 1.150784 0.221615
-0.001777 -0.013586 0.221615
-1.163647 -0.013586 0.002603
-0.248238 1.107051 -0.245992
-0.042928 -0.057319 -0.245992
-1.204798 -0.057319 -0.026979
-0.179705 1.195511 0.104896
0.025605 0.031141 0.104896
-1.154400 0.031141 0.030752
-0.233758 1.147507 0.522878
-0.028448 -0.016863 0.522878
-1.156424 -0.016863 0.168505
-0.216938 1.143383 0.446042
-0.011628 -0.020987 0.446042
-1.139604 -0.020987 0.091670
-0.201931 1.161190 0.244750
0.003379 -0.003180 0.244750
-1.158492 -0.003180 0.025737
-0.249629 1.124551 -0.347716
-0.044319 -0.039819 -0.347716
-1.206190 -0.039819 -0.128703
-0.176421 1.202517 0.305218
0.028889 0.038147 0.305218
-1.132982 0.038147 0.086206
-0.154055 1.205918 -0.414925
0.051255 0.041548 -0.414925
-1.076721 0.041548 -0.060552
-0.226323 1.140613 0.113782
-0.021013 -0.023757 0.113782
-1.201018 -0.023757 0.039638
-0.225840 1.163577 0.713342
-0.020530 -0.000793 0.713342
-1.102803 -0.000793 0.237322
-0.150995 1.222492 0.457868
0.054315 0.058122 0.457868
-1.073661 0.058122 0.103496
-0.188512 1.183924 -0.472300
0.016798 0.019554 -0.472300
-1.500000 0.019554 0.004227
-0.183234 1.188953 0.067840
0.022075 0.024583 0.067840
-1.157930 0.024583 -0.006304
-0.261552 1.097165 0.089690
-0.056242 -0.067205 0.089690
-1.236247 -0.067205 0.015546
-0.216635 1.166154 0.694748
-0.011325 0.001784 0.694748
-1.093598 0.001784 0.218728
-0.185166 1.189536 0.113089
0.020144 0.025166 0.113089
-1.159861 0.025166 0.038945
-0.150597 1.234026 0.311530
0.054713 0.069656 0.311530
-1.107157 0.069656 0.092517
LINES 100 400
3 0 1 2
3 3 4 5
3 6 7 8
3 9 10 11
3 12 13 14
3 15 16 17
3 18 19 20
3 21 22 23
3 24 25 26
3 27 28 29
3 30 31 32
3 33 34 35
3 36 37 38
3 39 40 41
3 42 43 44
3 45 46 47
3 48 49 50
3 51 52 53
3 54 55 56
3 57 58 59
3 60 61 62
3 63 64 65
3 66 67 68
3 69 70 71
3 72 73 74
3 75 76 77
3 78 79 80
3 81 82 83
3 84 85 86
3 87 88 89
3 90 91 92
3 93 94 95
3 96 97 98
3 99 100 101
3 102 103 104
3 105 106 107
3 108 109 110
3 111 112 113
3 114 115 116
3 117 118 119
3 120 121 122
3 123 124 125
3 126 127 128
3 129 130 131
3 132 133 134
3 135 136 137
3 138 139 140
3 141 142 143
3 144 145 146
3 147 148 149
3 150 151 152
3 153 154 155
3 156 157 158
3 159 160 161
3 162 163 164
3 165 166 167
3 168 169 170
3 171 172 173
3 174 175 176
3 177 178 179
3 180 181 182
3 183 184 185
3 186 187 188
3 189 190 191
3 192 193 194
3 195 196 197
3 198 199 200
3 201 202 203
3 204 205 206
3 207 208 209
3 210 211 212
3 213 214 215
3 216 217 218
3 219 220 221
3 222 223 224
3 225 226 227
3 228 229 230
3 231 232 233
3 234 235 236
3 237 238 239
3 240 241 242
3 243 244 245
3 246 247 248
3 249 250 251
3 252 253 254
3 255 256 257
3 258 259 260
3 261 262 263
3 264 265 266
3 267 268 269
3 270 271 272
3 273 274 275
3 276 277 278
3 279 280 281
3 282 283 284
3 285 286 287
3 288 289 290
3 291 292 293
3 294 295 296
3 297 298 299
CELL_DATA 100
SCALARS Radiative_path_type float 1
LOOKUP_TABLE path_type
0.5
0.5
0.75
0.75
0.75
0.75
0.75
0.75
0.75
0.75
0.75
0.75
0.75
0.75
0.75
0.75
0.5
0.75
0.75
0.5
0.5
0.75
0.75
0.75
0.75
0.75
0.75
0.75
0.75
0.5
0.75
0.75
0.75
0.75
0.75
0.75
0.75
0.75
0.75
0.75
0.75
0.5
0.75
0.75
0.75
0.75
0.75
0.75
0.75
0.75
0.75
0.75
0.75
0.75
0.75
0.75
0.75
0.75
0.75
0.75
0.75
0.75
0.75
0.75
0.5
0.75
0.75
0.75
0.5
0.75
0.75
0.75
0.75
0.75
0.75
0.5
0.75
0.75
0.75
0.75
0.75
0.75
0.75
0.75
0.75
0.75
0.75
0.75
0.75
0.75
0.75
0.75
0.75
0.75
0.5
0.75
0.75
0.75
0.75
0.75
LOOKUP_TABLE path_type 5
1.0 0.0 0.0 1.0
0.0 1.0 0.0 1.0
0.0 0.0 1.0 1.0
0.0 1.0 1.0 1.0
1.0 1.0 0.0 1.0
