# vtk DataFile Version 2.0
Radiative paths
ASCII
DATASET POLYDATA
POINTS 291 float
-0.146252 0.749431 0.992513
-0.013102 -0.005696 0.078705
-1.500000 -0.005696 -0.014722
-0.127255 0.745726 0.264330
0.005894 -0.009401 -0.649478
-1.500000 -0.009401 0.012864
-0.141843 0.676594 0.480510
-0.008694 -0.078532 -0.433298
-0.104795 0.791434 0.639515
0.028354 0.036307 -0.274293
-1.143893 0.036307 -0.053324
-0.097121 0.768788 1.448845
0.036028 0.013661 0.535037
-0.132940 0.687338 0.290961
0.000209 -0.067789 -0.622847
-0.131847 0.812734 0.777300
0.001302 0.057607 -0.136508
-1.189241 0.057607 -0.061702
-0.158157 0.743947 0.794614
-0.025008 -0.011180 -0.119194
-1.215551 -0.011180 -0.044388
-0.091623 0.819326 1.579082
0.041527 0.064200 0.665274
-1.050412 0.064200 0.185003
-0.088540 0.833900 1.562410
0.044609 0.078773 0.648602
-1.047329 0.078773 0.168331
-0.183394 0.726996 0.954105
-0.050245 -0.028131 0.040297
-1.240789 -0.028131 -0.034509
-0.081633 0.819540 1.415344
0.051516 0.064413 0.501536
-1.086534 0.064413 0.143998
-0.104206 0.790972 0.830932
0.028943 0.035845 -0.082876
-1.161600 0.035845 -0.008070
-0.165289 0.734600 0.607745
-0.032139 -0.020527 -0.306063
-1.204386 -0.020527 -0.085094
-0.085117 0.779890 0.864956
0.048032 0.024763 -0.048852
-1.142511 0.024763 0.025954
-0.081651 0.784955 0.283156
0.051498 0.029828 -0.630652
-1.040441 0.029828 -0.150381
-0.136855 0.766314 0.432208
-0.003705 0.011187 -0.481600
-1.500000 0.011187 -0.011514
-0.158930 0.706953 1.391538
-0.025781 -0.048173 0.477730
-1.163830 -0.048173 0.120193
-0.130045 0.687111 0.293628
0.003104 -0.068016 -0.620180
-0.146084 0.756682 0.428701
-0.012935 0.001555 -0.485107
-1.500000 0.001555 -0.017921
-0.133511 0.761538 1.001717
-0.000362 0.006411 0.087909
-1.500000 0.006411 -0.006318
-0.105060 0.822247 1.536023
0.028089 0.067120 0.622216
-1.063849 0.067120 0.141945
-0.172249 0.730615 0.785929
-0.039099 -0.024512 -0.127879
-1.229643 -0.024512 -0.053073
-0.092231 0.781165 1.049179
0.040918 0.026038 0.135371
-1.149625 0.026038 0.060565
-0.139814 0.800661 0.956561
-0.006664 0.045534 0.042754
-1.197208 0.045534 -0.032052
-0.181965 0.686612 1.179257
-0.048816 -0.068515 0.265449
-1.221063 -0.068515 0.044480
-0.111162 0.816523 0.428076
0.021987 0.061397 -0.485732
-1.116062 0.061397 -0.128195
-0.077834 0.814776 1.625973
0.055315 0.059649 0.712165
-1.036623 0.059649 0.231894
-0.135830 0.725549 1.030449
-0.002681 -0.029578 0.116641
-1.193224 -0.029578 0.041836
-0.121886 0.762743 0.259831
0.011264 0.007616 -0.653977
-1.500000 0.007616 0.010727
-0.105113 0.791436 0.259028
0.028036 0.036309 -0.654780
-1.063902 0.036309 -0.174509
-0.074197 0.784666 0.289864
0.058953 0.029539 -0.623944
-1.032986 0.029539 -0.143673
-0.077661 0.830392 1.219073
0.055488 0.075265 0.305265
-1.116759 0.075265 0.084296
-0.086190 0.787443 1.249815
0.046960 0.032316 0.336007
-1.125287 0.032316 0.115038
-0.136882 0.713972 1.432395
-0.003733 -0.041155 0.518587
-1.141783 -0.041155 0.161050
-0.080608 0.807084 0.850221
0.052541 0.051958 -0.063587
-1.138002 0.051958 0.011219
-0.143163 0.697499 0.276473
-0.010014 -0.057628 -0.637335
-0.078962 0.812156 1.627347
0.054187 0.057030 0.713540
-1.037751 0.057030 0.233269
-0.187856 0.741780 0.395785
-0.054707 -0.013346 -0.518023
-1.192756 -0.013346 -0.160486
-0.117782 0.701972 0.489495
0.015367 -0.053155 -0.424313
-0.135069 0.728952 1.221468
-0.001920 -0.026175 0.307660
-1.174167 -0.026175 0.086691
-0.147023 0.740967 1.185851
-0.013874 -0.014160 0.272043
-1.500000 -0.014160 -0.008092
-0.116354 0.780812 0.444095
0.016796 0.025686 -0.469712
-1.121254 0.025686 -0.112175
-0.176897 0.731504 0.412846
-0.043747 -0.023622 -0.500962
-1.181797 -0.023622 -0.143424
-0.120667 0.782535 1.190203
0.012482 0.027409 0.276395
-1.159765 0.027409 0.055426
-0.105876 0.755084 0.278049
0.027274 -0.000043 -0.635759
-0.085383 0.821004 0.260350
0.047766 0.065877 -0.653458
-1.044173 0.065877 -0.173187
-0.153641 0.754548 1.339015
-0.020492 -0.000579 0.425207
-1.158542 -0.000579 0.067670
-0.147435 0.714798 0.263349
-0.014286 -0.040329 -0.650459
-1.106225 -0.040329 -0.170188
-0.189041 0.710133 0.596703
-0.055892 -0.044994 -0.317105
-1.228139 -0.044994 -0.096137
-0.166019 0.742625 1.148252
-0.032870 -0.012502 0.234444
-1.205117 -0.012502 0.013476
-0.125772 0.788642 0.803836
0.007377 0.033515 -0.109972
-1.183166 0.033515 -0.035166
-0.138388 0.774712 1.346500
-0.005239 0.019585 0.432692
-1.143288 0.019585 0.075155
-0.111221 0.793694 1.007942
0.021928 0.038568 0.094134
-1.168616 0.038568 0.019328
-0.170132 0.689208 1.583868
-0.036983 -0.065918 0.670060
-1.128921 -0.065918 0.189789
-0.158070 0.674372 1.041422
-0.024921 -0.080754 0.127614
-1.215464 -0.080754 0.052808
-0.112673 0.765304 0.647841
0.020476 0.010177 -0.265967
-1.151771 0.010177 -0.044998
-0.115767 0.837885 0.410783
0.017382 0.082759 -0.503025
-1.120668 0.082759 -0.145488
-0.176580 0.736972 0.955878
-0.043431 -0.018155 0.042070
-1.233974 -0.018155 -0.032736
-0.079780 0.800520 1.445398
0.053369 0.045393 0.531591
-1.084680 0.045393 0.174053
-0.102347 0.836078 0.425275
0.030802 0.080951 -0.488533
-1.107248 0.080951 -0.130996
-0.193729 0.714501 0.222827
-0.060579 -0.040625 -0.690980
-1.152518 -0.040625 -0.210709
-0.108423 0.825185 1.166789
0.024726 0.070058 0.252981
-1.147521 0.070058 0.032013
-0.084008 0.771927 0.288142
0.049141 0.016800 -0.625666
-1.042798 0.016800 -0.145395
-0.125615 0.754142 0.450676
0.007534 -0.000985 -0.463132
-1.500000 -0.000985 0.010486
-0.083219 0.804662 1.628373
0.049931 0.049535 0.714565
-1.042008 0.049535 0.234294
-0.152776 0.776933 0.957466
-0.019627 0.021806 0.043658
-1.210170 0.021806 -0.031147
-0.176918 0.694827 0.620834
-0.043769 -0.060300 -0.292974
-1.216016 -0.060300 -0.072005
-0.140495 0.731868 0.449027
-0.007346 -0.023259 -0.464780
-1.145396 -0.023259 -0.107243
-0.087826 0.782341 0.279146
0.045324 0.027214 -0.634662
-1.046615 0.027214 -0.154391
-0.167714 0.759560 0.769892
-0.034565 0.004433 -0.143916
-1.225108 0.004433 -0.069110
-0.158745 0.679630 1.429051
-0.025596 -0.075497 0.515243
-1.163646 -0.075497 0.157705
-0.119148 0.806932 0.798736
0.014002 0.051805 -0.115072
-1.176542 0.051805 -0.040266
-0.100595 0.790328 1.604237
0.032554 0.035201 0.690430
-1.059384 0.035201 0.210159
-0.131357 0.777528 1.539605
0.001792 0.022401 0.625797
-1.090146 0.022401 0.145526
-0.106349 0.778043 1.029716
0.026801 0.022916 0.115908
-1.163743 0.022916 0.041102
-0.152696 0.789248 0.402747
-0.019547 0.034121 -0.511061
-1.157596 0.034121 -0.153524
-0.131808 0.761013 1.380131
0.001341 0.005886 0.466324
-1.500000 0.005886 -0.005348
-0.151204 0.689451 1.636932
-0.018055 -0.065676 0.723124
-1.109993 -0.065676 0.242853
-0.121549 0.698957 0.681780
0.011600 -0.056170 -0.232028
-0.175108 0.707548 1.353762
-0.041958 -0.047579 0.439954
-1.180008 -0.047579 0.082417
-0.100594 0.804590 0.635594
0.032556 0.049463 -0.278214
-1.139691 0.049463 -0.057246
-0.161492 0.679665 1.031259
-0.028342 -0.075461 0.117452
-1.218886 -0.075461 0.042646
-0.117891 0.816111 1.158840
0.015259 0.060984 0.245032
-1.156988 0.060984 0.024064
-0.116800 0.824148 0.788729
0.016349 0.069021 -0.125079
-1.174194 0.069021 -0.050274
-0.121013 0.783977 1.557601
0.012136 0.028850 0.643794
-1.079802 0.028850 0.163523
-0.085501 0.828472 1.206394
0.047648 0.073345 0.292586
-1.124598 0.073345 0.071618
-0.120254 0.738073 1.043751
0.012895 -0.017054 0.129943
-0.154505 0.743850 1.532853
-0.021356 -0.011277 0.619045
-1.113294 -0.011277 0.138774
-0.169667 0.719111 1.167007
-0.036518 -0.036016 0.253199
-1.208765 -0.036016 0.032230
-0.116456 0.809803 1.525496
0.016693 0.054676 0.611688
-1.075245 0.054676 0.131417
-0.099051 0.831453 0.431318
0.034098 0.076326 -0.482490
-1.103952 0.076326 -0.124953
-0.130097 0.773355 1.550431
0.003052 0.018229 0.636623
-1.088887 0.018229 0.156352
-0.121175 0.807309 0.979983
0.011974 0.052182 0.066176
-1.178570 0.052182 -0.008630
-0.118876 0.773506 0.445913
0.014273 0.018379 -0.467895
-1.500000 0.018379 0.007839
-0.136398 0.753703 1.379566
-0.003249 -0.001423 0.465758
-1.500000 -0.001423 -0.004471
-0.178484 0.680099 1.004060
-0.045335 -0.075028 0.090252
-1.235879 -0.075028 0.015446
-0.127530 0.744295 1.608305
0.005620 -0.010832 0.694497
-1.086319 -0.010832 0.214226
-0.109283 0.778612 1.024575
0.023867 0.023485 0.110767
-1.166677 0.023485 0.035961
-0.078355 0.825677 1.222903
0.054794 0.070550 0.309096
-1.117453 0.070550 0.088127
LINES 100 391
3 0 1 2
3 3 4 5
2 6 7
3 8 9 10
2 11 12
2 13 14
3 15 16 17
3 18 19 20
3 21 22 23
3 24 25 26
3 27 28 29
3 30 31 32
3 33 34 35
3 36 37 38
3 39 40 41
3 42 43 44
3 45 46 47
3 48 49 50
2 51 52
3 53 54 55
3 56 57 58
3 59 60 61
3 62 63 64
3 65 66 67
3 68 69 70
3 71 72 73
3 74 75 76
3 77 78 79
3 80 81 82
3 83 84 85
3 86 87 88
3 89 90 91
3 92 93 94
3 95 96 97
3 98 99 100
3 101 102 103
2 104 105
3 106 107 108
3 109 110 111
2 112 113
3 114 115 116
3 117 118 119
3 120 121 122
3 123 124 125
3 126 127 128
2 129 130
3 131 132 133
3 134 135 136
3 137 138 139
3 140 141 142
3 143 144 145
3 146 147 148
3 149 150 151
3 152 153 154
3 155 156 157
3 158 159 160
3 161 162 163
3 164 165 166
3 167 168 169
3 170 171 172
3 173 174 175
3 176 177 178
3 179 180 181
3 182 183 184
3 185 186 187
3 188 189 190
3 191 192 193
3 194 195 196
3 197 198 199
3 200 201 202
3 203 204 205
3 206 207 208
3 209 210 211
3 212 213 214
3 215 216 217
3 218 219 220
3 221 222 223
3 224 225 226
3 227 228 229
2 230 231
3 232 233 234
3 235 236 237
3 238 239 240
3 241 242 243
3 244 245 246
3 247 248 249
3 250 251 252
2 253 254
3 255 256 257
3 258 259 260
3 261 262 263
3 264 265 266
3 267 268 269
3 270 271 272
3 273 274 275
3 276 277 278
3 279 280 281
3 282 283 284
3 285 286 287
3 288 289 290
CELL_DATA 100
SCALARS Radiative_path_type float 1
LOOKUP_TABLE path_type
0.5
0.5
1.0
0.75
1.0
1.0
0.75
0.75
0.75
0.75
0.75
0.75
0.75
0.75
0.75
0.75
0.5
0.75
1.0
0.5
0.5
0.75
0.75
0.75
0.75
0.75
0.75
0.75
0.75
0.5
0.75
0.75
0.75
0.75
0.75
0.75
1.0
0.75
0.75
1.0
0.75
0.5
0.75
0.75
0.75
1.0
0.75
0.75
0.75
0.75
0.75
0.75
0.75
0.75
0.75
0.75
0.75
0.75
0.75
0.75
0.75
0.75
0.75
0.75
0.5
0.75
0.75
0.75
0.75
0.75
0.75
0.75
0.75
0.75
0.75
0.75
0.75
0.5
0.75
1.0
0.75
0.75
0.75
0.75
0.75
0.75
0.75
1.0
0.75
0.75
0.75
0.75
0.75
0.75
0.5
0.5
0.75
0.75
0.75
0.75
LOOKUP_TABLE path_type 5
1.0 0.0 0.0 1.0
0.0 1.0 0.0 1.0
0.0 0.0 1.0 1.0
0.0 1.0 1.0 1.0
1.0 1.0 0.0 1.0
