# vtk DataFile Version 2.0
Radiative paths
ASCII
DATASET POLYDATA
POINTS 200 float
-0.807184 0.897015 0.000000
0.012555 0.077276 0.000000
-0.766314 1.158610 0.000000
0.053426 0.338870 0.000000
-0.799284 1.196344 0.000000
0.020455 0.376605 0.000000
-0.788146 1.009353 0.000000
0.031594 0.189614 0.000000
-0.869221 1.333512 0.000000
-0.049482 0.513773 0.000000
-0.765410 1.252831 0.000000
0.054329 0.433092 0.000000
-0.819605 0.828029 0.000000
0.000135 0.008290 0.000000
-0.881014 1.135340 0.000000
-0.061275 0.315601 0.000000
-0.814273 0.837506 0.000000
0.005466 0.017767 0.000000
-0.789041 1.203127 0.000000
0.030698 0.383388 0.000000
-0.839192 0.928746 0.000000
-0.019453 0.109007 0.000000
-0.890457 1.047954 0.000000
-0.070718 0.228215 0.000000
-0.757502 1.270402 0.000000
0.062237 0.450663 0.000000
-0.866855 1.331013 0.000000
-0.047116 0.511274 0.000000
-0.796413 0.820162 0.000000
0.023326 0.000423 0.000000
-0.844340 1.323675 0.000000
-0.024601 0.503936 0.000000
-0.756784 1.130207 0.000000
0.062956 0.310467 0.000000
-0.813100 0.859945 0.000000
0.006640 0.040205 0.000000
-0.791048 0.965246 0.000000
0.028691 0.145507 0.000000
-0.839464 1.239626 0.000000
-0.019725 0.419886 0.000000
-0.769541 1.153972 0.000000
0.050199 0.334233 0.000000
-0.783859 1.360566 0.000000
0.035880 0.540827 0.000000
-0.893927 0.863563 0.000000
-0.074188 0.043824 0.000000
-0.809435 1.166354 0.000000
0.010304 0.346614 0.000000
-0.760270 0.965213 0.000000
0.059469 0.145474 0.000000
-0.748241 0.948797 0.000000
0.071498 0.129058 0.000000
-0.823347 1.337681 0.000000
-0.003607 0.517942 0.000000
-0.861105 1.122592 0.000000
-0.041366 0.302853 0.000000
-0.852071 1.078723 0.000000
-0.032332 0.258984 0.000000
-0.772573 0.843621 0.000000
0.047166 0.023882 0.000000
-0.778155 1.289378 0.000000
0.041584 0.469639 0.000000
-0.785998 1.352794 0.000000
0.033742 0.533055 0.000000
-0.845611 1.238266 0.000000
-0.025872 0.418527 0.000000
-0.887153 1.267941 0.000000
-0.067414 0.448202 0.000000
-0.832084 1.088948 0.000000
-0.012345 0.269209 0.000000
-0.850822 1.170782 0.000000
-0.031083 0.351043 0.000000
-0.830189 1.152619 0.000000
-0.010450 0.332880 0.000000
-0.786894 1.021957 0.000000
0.032845 0.202218 0.000000
-0.877741 1.266819 0.000000
-0.058002 0.447080 0.000000
-0.819913 1.304850 0.000000
-0.000174 0.485111 0.000000
-0.768853 1.162840 0.000000
0.050886 0.343101 0.000000
-0.874213 1.116481 0.000000
-0.054474 0.296742 0.000000
-0.744428 1.339093 0.000000
0.075312 0.519354 0.000000
-0.864335 1.369039 0.000000
-0.044596 0.549300 0.000000
-0.814029 1.120578 0.000000
0.005711 0.300839 0.000000
-0.846831 0.994831 0.000000
-0.027092 0.175091 0.000000
-0.838603 1.244216 0.000000
-0.018864 0.424477 0.000000
-0.841744 1.083018 0.000000
-0.022005 0.263279 0.000000
-0.866488 1.276815 0.000000
-0.046749 0.457076 0.000000
-0.830581 1.035249 0.000000
-0.010842 0.215509 0.000000
-0.728275 0.976101 0.000000
0.091464 0.156362 0.000000
-0.812957 0.813029 0.000000
0.006782 -0.006710 0.000000
-0.832494 0.927119 0.000000
-0.012755 0.107379 0.000000
-0.755944 1.266775 0.000000
0.063795 0.447036 0.000000
-0.762657 0.967779 0.000000
0.057082 0.148039 0.000000
-0.878712 1.239088 0.000000
-0.058972 0.419349 0.000000
-0.862617 1.397356 0.000000
-0.042878 0.577617 0.000000
-0.831414 1.305941 0.000000
-0.011675 0.486202 0.000000
-0.837537 0.874218 0.000000
-0.017798 0.054478 0.000000
-0.780516 1.038608 0.000000
0.039223 0.218868 0.000000
-0.888770 0.889082 0.000000
-0.069031 0.069343 0.000000
-0.777638 0.934412 0.000000
0.042101 0.114673 0.000000
-0.833826 0.989223 0.000000
-0.014087 0.169484 0.000000
-0.780399 1.161017 0.000000
0.039341 0.341278 0.000000
-0.800163 1.374445 0.000000
0.019576 0.554706 0.000000
-0.822684 1.172008 0.000000
-0.002945 0.352269 0.000000
-0.738016 0.951668 0.000000
0.081723 0.131928 0.000000
-0.754955 1.349200 0.000000
0.064784 0.529461 0.000000
-0.746303 1.124851 0.000000
0.073436 0.305112 0.000000
-0.807012 0.945306 0.000000
0.012728 0.125567 0.000000
-0.750805 1.330578 0.000000
0.068934 0.510839 0.000000
-0.885691 1.092368 0.000000
-0.065952 0.272628 0.000000
-0.806878 1.115689 0.000000
0.012861 0.295950 0.000000
-0.819619 1.377563 0.000000
0.000121 0.557824 0.000000
-0.794275 1.149965 0.000000
0.025464 0.330226 0.000000
-0.900344 1.076385 0.000000
-0.080604 0.256646 0.000000
-0.753677 1.125235 0.000000
0.066062 0.305496 0.000000
-0.811783 1.135899 0.000000
0.007956 0.316159 0.000000
-0.770968 1.143381 0.000000
0.048772 0.323642 0.000000
-0.884730 0.913251 0.000000
-0.064990 0.093512 0.000000
-0.817162 1.276636 0.000000
0.002577 0.456897 0.000000
-0.817444 1.123803 0.000000
0.002296 0.304064 0.000000
-0.767812 1.364091 0.000000
0.051927 0.544352 0.000000
-0.761213 1.366991 0.000000
0.058526 0.547252 0.000000
-0.902273 1.059550 0.000000
-0.082533 0.239810 0.000000
-0.894253 0.896381 0.000000
-0.074514 0.076642 0.000000
-0.802111 1.222484 0.000000
0.017628 0.402745 0.000000
-0.760882 0.978029 0.000000
0.058857 0.158290 0.000000
-0.780024 0.860415 0.000000
0.039715 0.040675 0.000000
-0.795427 1.040547 0.000000
0.024312 0.220808 0.000000
-0.791027 1.253781 0.000000
0.028712 0.434042 0.000000
-0.794690 1.127122 0.000000
0.025049 0.307383 0.000000
-0.821769 1.132601 0.000000
-0.002030 0.312862 0.000000
-0.826478 0.938806 0.000000
-0.006739 0.119066 0.000000
-0.785260 1.070065 0.000000
0.034479 0.250326 0.000000
-0.858197 0.991684 0.000000
-0.038458 0.171944 0.000000
-0.902234 1.050836 0.000000
-0.082495 0.231097 0.000000
-0.800453 0.923088 0.000000
0.019286 0.103349 0.000000
-0.791610 1.111719 0.000000
0.028129 0.291979 0.000000
-0.817803 0.828457 0.000000
0.001936 0.008718 0.000000
LINES 100 300
2 0 1
2 2 3
2 4 5
2 6 7
2 8 9
2 10 11
2 12 13
2 14 15
2 16 17
2 18 19
2 20 21
2 22 23
2 24 25
2 26 27
2 28 29
2 30 31
2 32 33
2 34 35
2 36 37
2 38 39
2 40 41
2 42 43
2 44 45
2 46 47
2 48 49
2 50 51
2 52 53
2 54 55
2 56 57
2 58 59
2 60 61
2 62 63
2 64 65
2 66 67
2 68 69
2 70 71
2 72 73
2 74 75
2 76 77
2 78 79
2 80 81
2 82 83
2 84 85
2 86 87
2 88 89
2 90 91
2 92 93
2 94 95
2 96 97
2 98 99
2 100 101
2 102 103
2 104 105
2 106 107
2 108 109
2 110 111
2 112 113
2 114 115
2 116 117
2 118 119
2 120 121
2 122 123
2 124 125
2 126 127
2 128 129
2 130 131
2 132 133
2 134 135
2 136 137
2 138 139
2 140 141
2 142 143
2 144 145
2 146 147
2 148 149
2 150 151
2 152 153
2 154 155
2 156 157
2 158 159
2 160 161
2 162 163
2 164 165
2 166 167
2 168 169
2 170 171
2 172 173
2 174 175
2 176 177
2 178 179
2 180 181
2 182 183
2 184 185
2 186 187
2 188 189
2 190 191
2 192 193
2 194 195
2 196 197
2 198 199
CELL_DATA 100
SCALARS Radiative_path_type float 1
LOOKUP_TABLE path_type
0.75
0.75
0.75
0.75
0.75
0.75
0.75
0.75
0.75
0.75
0.75
0.75
0.75
0.75
0.75
0.75
0.75
0.75
0.75
0.75
0.75
0.75
0.75
0.75
0.75
0.75
0.75
0.75
0.75
0.75
0.75
0.75
0.75
0.75
0.75
0.75
0.75
0.75
0.75
0.75
0.75
0.75
0.75
0.75
0.75
0.75
0.75
0.75
0.75
0.75
0.75
0.75
0.75
0.75
0.75
0.75
0.75
0.75
0.75
0.75
0.75
0.75
0.75
0.75
0.75
0.75
0.75
0.75
0.75
0.75
0.75
0.75
0.75
0.75
0.75
0.75
0.75
0.75
0.75
0.75
0.75
0.75
0.75
0.75
0.75
0.75
0.75
0.75
0.75
0.75
0.75
0.75
0.75
0.75
0.75
0.75
0.75
0.75
0.75
0.75
LOOKUP_TABLE path_type 5
1.0 0.0 0.0 1.0
0.0 1.0 0.0 1.0
0.0 0.0 1.0 1.0
0.0 1.0 1.0 1.0
1.0 1.0 0.0 1.0
