# vtk DataFile Version 2.0
Radiative paths
ASCII
DATASET POLYDATA
POINTS 300 float
-1.194342 -0.008653 0.076522
-0.007524 -0.008653 0.076522
-0.007524 1.500000 -0.018271
-1.187131 -0.006371 -0.646041
-0.000313 -0.006371 -0.646041
-0.000313 1.500000 0.016511
-1.228814 -0.059388 -0.422335
-0.041996 -0.059388 -0.422335
-0.041996 1.072868 -0.066618
-1.153850 0.031571 -0.272257
0.032968 0.031571 -0.272257
0.032968 1.197849 -0.052414
-1.176460 0.031781 0.537854
0.010358 0.031781 0.537854
0.010358 1.164037 0.182137
-1.214919 -0.052362 -0.610497
-0.028101 -0.052362 -0.610497
-0.028101 1.034017 -0.132672
-1.152596 0.037451 -0.144572
0.034222 0.037451 -0.144572
0.034222 1.221933 -0.070147
-1.203365 -0.014713 -0.123954
-0.016547 -0.014713 -0.123954
-0.016547 1.169769 -0.049529
-1.136416 0.057494 0.665281
0.050402 0.057494 0.665281
0.050402 1.143873 0.187455
-1.123291 0.064492 0.648589
0.063527 0.064492 0.648589
0.063527 1.150871 0.170763
-1.219734 -0.036846 0.032722
-0.032916 -0.036846 0.032722
-0.032916 1.147636 -0.041703
-1.135392 0.063839 0.502873
0.051426 0.063839 0.502873
0.051426 1.196095 0.147156
-1.154267 0.031764 -0.080705
0.032551 0.031764 -0.080705
0.032551 1.216246 -0.006280
-1.213277 -0.021473 -0.311674
-0.026459 -0.021473 -0.311674
-0.026459 1.144806 -0.091830
-1.153112 0.030375 -0.040190
0.033706 0.030375 -0.040190
0.033706 1.214857 0.034235
-1.142920 0.030875 -0.620914
0.043898 0.030875 -0.620914
0.043898 1.117254 -0.143088
-1.183578 0.007587 -0.484590
0.003240 0.007587 -0.484590
0.003240 1.500000 -0.015723
-1.225558 -0.038481 0.478016
-0.038740 -0.038481 0.478016
-0.038740 1.093775 0.122299
-1.213244 -0.052098 -0.606938
-0.026426 -0.052098 -0.606938
-0.026426 1.034282 -0.129112
-1.193257 -0.001139 -0.489110
-0.006439 -0.001139 -0.489110
-0.006439 1.500000 -0.017503
-1.182784 0.003588 0.087019
0.004034 0.003588 0.087019
0.004034 1.500000 -0.007005
-1.130055 0.045483 0.622172
0.056763 0.045483 0.622172
0.056763 1.131862 0.144346
-1.216803 -0.027527 -0.134296
-0.029984 -0.027527 -0.134296
-0.029984 1.156955 -0.059871
-1.157992 0.031830 0.141145
0.028826 0.031830 0.141145
0.028826 1.216312 0.066720
-1.159366 0.023816 0.035523
0.027452 0.023816 0.035523
0.027452 1.208298 -0.038902
-1.243741 -0.061483 0.263875
-0.056923 -0.061483 0.263875
-0.056923 1.104796 0.044031
-1.145559 0.049112 -0.489916
0.041259 0.049112 -0.489916
0.041259 1.181367 -0.134199
-1.144430 0.069387 0.712226
0.042388 0.069387 0.712226
0.042388 1.155766 0.234401
-1.206707 -0.018324 0.119785
-0.019889 -0.018324 0.119785
-0.019889 1.166158 0.045361
-1.176762 0.007597 -0.652045
0.010056 0.007597 -0.652045
0.010056 1.500000 0.004363
-1.154562 0.032321 -0.653117
0.032256 0.032321 -0.653117
0.032256 1.118700 -0.175291
-1.138484 0.031783 -0.611962
0.048334 0.031783 -0.611962
0.048334 1.118162 -0.134136
-1.123995 0.068560 0.307314
0.062823 0.068560 0.307314
0.062823 1.234839 0.087470
-1.156206 0.042104 0.340853
0.030612 0.042104 0.340853
0.030612 1.208382 0.121010
-1.220314 -0.019581 0.520677
-0.033496 -0.019581 0.520677
-0.033496 1.112674 0.164960
-1.135399 0.049226 -0.057736
0.051419 0.049226 -0.057736
0.051419 1.233708 0.016689
-1.216936 -0.046061 -0.629834
-0.030118 -0.046061 -0.629834
-0.030118 1.040318 -0.152008
-1.146637 0.067582 0.713603
0.040181 0.067582 0.713603
0.040181 1.153961 0.235777
-1.223484 -0.019493 -0.531535
-0.036666 -0.019493 -0.531535
-0.036666 1.112762 -0.175818
-1.203454 -0.036443 -0.410754
-0.016636 -0.036443 -0.410754
-0.016636 1.095812 -0.055037
-1.205934 -0.014329 0.309927
-0.019116 -0.014329 0.309927
-0.019116 1.151949 0.090083
-1.199177 -0.014779 0.271069
-0.012359 -0.014779 0.271069
-0.012359 1.500000 -0.014467
-1.165342 0.021888 -0.469268
0.021476 0.021888 -0.469268
0.021476 1.154143 -0.113551
-1.222268 -0.025128 -0.509545
-0.035450 -0.025128 -0.509545
-0.035450 1.107128 -0.153828
-1.165155 0.020738 0.275816
0.021663 0.020738 0.275816
0.021663 1.187016 0.055973
-1.170166 0.004109 -0.627731
0.016652 0.004109 -0.627731
0.016652 1.090488 -0.149905
-1.130190 0.058170 -0.651352
0.056628 0.058170 -0.651352
0.056628 1.144549 -0.173526
-1.186842 -0.015129 0.423174
-0.000024 -0.015129 0.423174
-0.000024 1.117126 0.067457
-1.212344 -0.033340 -0.647350
-0.025526 -0.033340 -0.647350
-0.025526 1.053040 -0.169524
-1.237749 -0.043793 -0.325375
-0.050931 -0.043793 -0.325375
-0.050931 1.122486 -0.105531
-1.200973 -0.024338 0.230048
-0.014155 -0.024338 0.230048
-0.014155 1.141940 0.010205
-1.164259 0.023780 -0.112972
0.022559 0.023780 -0.112972
0.022559 1.208262 -0.038547
-1.170725 0.004221 0.430989
0.016094 0.004221 0.430989
0.016094 1.136476 0.075273
-1.155474 0.031398 0.094117
0.031344 0.031398 0.094117
0.031344 1.215880 0.019693
-1.240071 -0.053636 0.670072
-0.053253 -0.053636 0.670072
-0.053253 1.032743 0.192246
-1.246286 -0.057195 0.132298
-0.059468 -0.057195 0.132298
-0.059468 1.127287 0.057873
-1.171495 0.011668 -0.261927
0.015323 0.011668 -0.261927
0.015323 1.500000 0.018623
-1.123869 0.050814 0.618928
0.062949 0.050814 0.618928
0.062949 1.137193 0.141102
-1.249369 -0.062834 -0.479944
-0.062551 -0.062834 -0.479944
-0.062551 1.069422 -0.124227
-1.205116 -0.017343 0.110018
-0.018297 -0.017343 0.110018
-0.018297 1.500000 0.014679
-1.245261 -0.064021 -0.258617
-0.058443 -0.064021 -0.258617
-0.058443 1.102258 -0.038774
-1.206518 -0.005588 -0.519190
-0.019700 -0.005588 -0.519190
-0.019700 1.126668 -0.163473
-1.116160 0.060024 0.219730
0.070658 0.060024 0.219730
0.070658 1.226302 -0.000113
-1.125349 0.064687 -0.472066
0.061469 0.064687 -0.472066
0.061469 1.196943 -0.116349
-1.242972 -0.041200 -0.527464
-0.056154 -0.041200 -0.527464
-0.056154 1.091056 -0.171747
-1.219094 -0.009950 0.717295
-0.032276 -0.009950 0.717295
-0.032276 1.076429 0.239469
-1.141757 0.049910 0.304263
0.045061 0.049910 0.304263
0.045061 1.216189 0.084419
-1.170882 0.010409 -0.451212
0.015936 0.010409 -0.451212
0.015936 1.500000 0.016768
-1.254623 -0.063711 0.161533
-0.067805 -0.063711 0.161533
-0.067805 1.120771 0.087108
-1.188537 0.025848 0.722788
-0.001719 0.025848 0.722788
-0.001719 1.112227 0.244962
-1.134788 0.057766 0.481524
0.052031 0.057766 0.481524
0.052031 1.190021 0.125807
-1.132280 0.059386 0.303374
0.054538 0.059386 0.303374
0.054538 1.225665 0.083530
-1.251754 -0.049578 -0.530096
-0.064936 -0.049578 -0.530096
-0.064936 1.082677 -0.174379
-1.211722 -0.009439 -0.524294
-0.024904 -0.009439 -0.524294
-0.024904 1.122816 -0.168577
-1.121777 0.062952 0.454624
0.065041 0.062952 0.454624
0.065041 1.195207 0.098907
-1.195437 -0.007690 -0.288483
-0.008619 -0.007690 -0.288483
-0.008619 1.500000 -0.004284
-1.195235 -0.026688 -0.619979
-0.008417 -0.026688 -0.619979
-0.008417 1.059691 -0.142153
-1.234996 -0.063023 -0.636126
-0.048178 -0.063023 -0.636126
-0.048178 1.023356 -0.158300
-1.228527 -0.042244 -0.087036
-0.041709 -0.042244 -0.087036
-0.041709 1.142238 -0.012611
-1.129673 0.045939 -0.426815
0.057145 0.045939 -0.426815
0.057145 1.178194 -0.071098
-1.191765 -0.012518 0.243045
-0.004947 -0.012518 0.243045
-0.004947 1.153760 0.023201
-1.211143 -0.016901 -0.681743
-0.024325 -0.016901 -0.681743
-0.024325 1.069478 -0.203918
-1.240001 -0.049158 0.309073
-0.053183 -0.049158 0.309073
-0.053183 1.117121 0.089229
-1.193754 0.008412 0.521168
-0.006936 0.008412 0.521168
-0.006936 1.140668 0.165451
-1.240865 -0.054768 -0.477245
-0.054047 -0.054768 -0.477245
-0.054047 1.077488 -0.121528
-1.237634 -0.052693 0.065969
-0.050816 -0.052693 0.065969
-0.050816 1.131789 -0.008456
-1.126666 0.065317 -0.304532
0.060152 0.065317 -0.304532
0.060152 1.231595 -0.084688
-1.233359 -0.061904 -0.634602
-0.046541 -0.061904 -0.634602
-0.046541 1.024475 -0.156777
-1.228077 -0.052479 -0.642912
-0.041258 -0.052479 -0.642912
-0.041258 1.033900 -0.165086
-1.146700 0.030991 -0.436044
0.040118 0.030991 -0.436044
0.040118 1.163247 -0.080327
-1.209651 -0.029219 -0.454426
-0.022833 -0.029219 -0.454426
-0.022833 1.103037 -0.098709
-1.239592 -0.054388 0.474206
-0.052774 -0.054388 0.474206
-0.052774 1.077867 0.118489
-1.145198 0.052478 -0.499428
0.041620 0.052478 -0.499428
0.041620 1.184733 -0.143711
-1.167027 0.022463 -0.476719
0.019791 0.022463 -0.476719
0.019791 1.500000 -0.012527
-1.124968 0.063081 0.111893
0.061850 0.063081 0.111893
0.061850 1.247563 0.037469
-1.184495 0.012360 -0.682083
0.002323 0.012360 -0.682083
0.002323 1.098739 -0.204258
-1.177959 0.004944 0.457429
0.008859 0.004944 0.457429
0.008859 1.500000 -0.012268
-1.143580 0.047206 -0.477250
0.043238 0.047206 -0.477250
0.043238 1.179462 -0.121533
-1.128255 0.068737 -0.331252
0.058563 0.068737 -0.331252
0.058563 1.235016 -0.111409
-1.227923 -0.059221 -0.627202
-0.041105 -0.059221 -0.627202
-0.041105 1.027158 -0.149376
LINES 100 400
3 0 1 2
3 3 4 5
3 6 7 8
3 9 10 11
3 12 13 14
3 15 16 17
3 18 19 20
3 21 22 23
3 24 25 26
3 27 28 29
3 30 31 32
3 33 34 35
3 36 37 38
3 39 40 41
3 42 43 44
3 45 46 47
3 48 49 50
3 51 52 53
3 54 55 56
3 57 58 59
3 60 61 62
3 63 64 65
3 66 67 68
3 69 70 71
3 72 73 74
3 75 76 77
3 78 79 80
3 81 82 83
3 84 85 86
3 87 88 89
3 90 91 92
3 93 94 95
3 96 97 98
3 99 100 101
3 102 103 104
3 105 106 107
3 108 109 110
3 111 112 113
3 114 115 116
3 117 118 119
3 120 121 122
3 123 124 125
3 126 127 128
3 129 130 131
3 132 133 134
3 135 136 137
3 138 139 140
3 141 142 143
3 144 145 146
3 147 148 149
3 150 151 152
3 153 154 155
3 156 157 158
3 159 160 161
3 162 163 164
3 165 166 167
3 168 169 170
3 171 172 173
3 174 175 176
3 177 178 179
3 180 181 182
3 183 184 185
3 186 187 188
3 189 190 191
3 192 193 194
3 195 196 197
3 198 199 200
3 201 202 203
3 204 205 206
3 207 208 209
3 210 211 212
3 213 214 215
3 216 217 218
3 219 220 221
3 222 223 224
3 225 226 227
3 228 229 230
3 231 232 233
3 234 235 236
3 237 238 239
3 240 241 242
3 243 244 245
3 246 247 248
3 249 250 251
3 252 253 254
3 255 256 257
3 258 259 260
3 261 262 263
3 264 265 266
3 267 268 269
3 270 271 272
3 273 274 275
3 276 277 278
3 279 280 281
3 282 283 284
3 285 286 287
3 288 289 290
3 291 292 293
3 294 295 296
3 297 298 299
CELL_DATA 100
SCALARS Radiative_path_type float 1
LOOKUP_TABLE path_type
0.5
0.5
0.75
0.75
0.75
0.75
0.75
0.75
0.75
0.75
0.75
0.75
0.75
0.75
0.75
0.75
0.5
0.75
0.75
0.5
0.5
0.75
0.75
0.75
0.75
0.75
0.75
0.75
0.75
0.5
0.75
0.75
0.75
0.75
0.75
0.75
0.75
0.75
0.75
0.75
0.75
0.5
0.75
0.75
0.75
0.75
0.75
0.75
0.75
0.75
0.75
0.75
0.75
0.75
0.75
0.75
0.5
0.75
0.75
0.5
0.75
0.75
0.75
0.75
0.75
0.75
0.75
0.5
0.75
0.75
0.75
0.75
0.75
0.75
0.75
0.5
0.75
0.75
0.75
0.75
0.75
0.75
0.75
0.75
0.75
0.75
0.75
0.75
0.75
0.75
0.75
0.75
0.75
0.5
0.75
0.75
0.5
0.75
0.75
0.75
LOOKUP_TABLE path_type 5
1.0 0.0 0.0 1.0
0.0 1.0 0.0 1.0
0.0 0.0 1.0 1.0
0.0 1.0 1.0 1.0
1.0 1.0 0.0 1.0
