# vtk DataFile Version 2.0
Radiative paths
ASCII
DATASET POLYDATA
POINTS 301 float
-0.835336 -0.784342 0.052467
-0.013862 0.037132 0.052467
-1.173315 0.037132 -0.020385
-0.802335 -0.853236 0.638404
0.019139 -0.031762 0.638404
-1.044284 -0.031762 0.170675
-0.792807 -0.880087 -0.450652
0.028667 -0.058613 -0.450652
-1.079663 -0.058613 -0.102451
-0.838779 -0.758231 0.199197
-0.017305 0.063243 0.199197
-1.158940 0.063243 -0.016001
-0.848839 -0.767806 0.496302
-0.027365 0.053668 0.496302
-1.135695 0.053668 0.148102
-0.798696 -0.878616 -0.119224
0.022778 -0.057142 -0.119224
-1.136675 -0.057142 -0.046371
-0.804277 -0.849647 -0.233419
0.017197 -0.028174 -0.233419
-1.124437 -0.028174 -0.018221
-0.856462 -0.338115 0.106300
-0.034989 0.483359 0.106300
-1.150789 0.167588 0.036190
-0.816785 -0.851159 -0.353293
0.004689 -0.029685 -0.353293
-1.136945 -0.029685 -0.138095
-0.811359 -0.868275 0.525606
0.010115 -0.046801 0.525606
-1.098215 -0.046801 0.177406
-0.830686 -0.799844 0.100843
-0.009212 0.021630 0.100843
-1.168665 0.021630 0.027991
-0.849435 -0.352574 0.146664
-0.027961 0.468900 0.146664
-1.143762 0.153129 0.076554
-0.819506 -0.834110 -0.183232
0.001968 -0.012636 -0.183232
-1.157485 -0.012636 -0.110379
-0.847408 -0.770475 0.494667
-0.025934 0.050999 0.494667
-1.134264 0.050999 0.146467
-0.809146 -0.872245 -0.364100
0.012328 -0.050772 -0.364100
-1.129306 -0.050772 -0.148902
-0.832642 -0.792209 -0.067936
-0.011168 0.029265 -0.067936
-1.170621 0.029265 0.004916
-0.807908 -0.868132 0.337104
0.013566 -0.046658 0.337104
-1.128068 -0.046658 0.121906
-0.810017 -0.844862 0.046431
0.011457 -0.023388 0.046431
-1.147996 -0.023388 -0.026421
-0.832382 -0.829503 -0.717809
-0.010908 -0.008029 -0.717809
-1.074331 -0.008029 -0.250080
-0.814414 -0.815088 0.417059
0.007060 0.006386 0.417059
-1.101270 0.006386 0.068858
-0.828752 -0.770735 0.599966
-0.007278 0.050739 0.599966
-1.070701 0.050739 0.132237
-0.815460 -0.838330 -0.477689
0.006013 -0.016856 -0.477689
-1.500000 -0.016856 -0.004550
-0.833303 -0.790182 0.063056
-0.011829 0.031292 0.063056
-1.171282 0.031292 -0.009796
-0.820615 -0.863363 -0.729861
0.000858 -0.041890 -0.729861
-1.062564 -0.041890 -0.262132
-0.790333 -0.448108 0.063199
0.031141 0.373366 0.063199
-1.084660 0.057595 -0.006910
-0.847737 -0.766304 0.486648
-0.026263 0.055170 0.486648
-1.134593 0.055170 0.138448
-0.817648 -0.834229 -0.134062
0.003825 -0.012756 -0.134062
-1.155628 -0.012756 -0.061210
-0.801768 -0.840028 -0.405809
0.019706 -0.018554 -0.405809
-1.088624 -0.018554 -0.057609
-0.818420 -0.863966 0.722072
0.003054 -0.042492 0.722072
-1.060369 -0.042492 0.254344
-0.838047 -0.802031 -0.692391
-0.016573 0.019443 -0.692391
-1.079996 0.019443 -0.224662
-0.799725 -0.866593 0.011623
0.021749 -0.045119 0.011623
-1.137704 -0.045119 -0.061229
-0.815552 -0.819438 -0.220953
0.005922 0.002036 -0.220953
-1.135712 0.002036 -0.005755
-0.798713 -0.878276 0.115845
0.022761 -0.056802 0.115845
-1.136692 -0.056802 0.042992
-0.858189 -0.772159 0.558388
-0.036715 0.049315 0.558388
-1.145045 0.049315 0.210188
-0.861702 -0.770545 -0.732417
-0.040228 0.050929 -0.732417
-1.103651 0.050929 -0.264688
-0.845085 -0.756969 -0.008899
-0.023611 0.064505 -0.008899
-1.183064 0.064505 0.063953
-0.787588 -0.451724 0.046007
0.033886 0.369750 0.046007
-1.081915 0.053978 -0.024102
-0.799671 -0.870163 0.050411
0.021803 -0.048689 0.050411
-1.137650 -0.048689 -0.022441
-0.805956 -0.847962 -0.447740
0.015517 -0.026488 -0.447740
-1.092813 -0.026488 -0.099539
-0.818158 -0.846177 -0.346801
0.003316 -0.024703 -0.346801
-1.138318 -0.024703 -0.131603
-0.791111 -0.866409 0.408980
0.030363 -0.044935 0.408980
-1.077967 -0.044935 0.060780
-0.850874 -0.350252 0.148759
-0.029400 0.471221 0.148759
-1.145201 0.155450 0.078650
-0.797646 -0.879777 0.103757
0.023828 -0.058303 0.103757
-1.135625 -0.058303 0.030905
-0.811306 -0.837823 -0.453471
0.010168 -0.016349 -0.453471
-1.098162 -0.016349 -0.105270
-0.798645 -0.872732 0.051485
0.022829 -0.051258 0.051485
-1.136624 -0.051258 -0.021367
-0.817314 -0.833150 -0.289373
0.004160 -0.011676 -0.289373
-1.500000 -0.011676 -0.005838
-0.831888 -0.843043 -0.739598
-0.010414 -0.021569 -0.739598
-1.073837 -0.021569 -0.271870
-0.833103 -0.801172 -0.487807
-0.011630 0.020302 -0.487807
-1.119960 0.020302 -0.139607
-0.834407 -0.797775 -0.178702
-0.012934 0.023699 -0.178702
-1.172387 0.023699 -0.105850
-0.833388 -0.765852 0.406061
-0.011915 0.055622 0.406061
-1.120245 0.055622 0.057860
-0.841905 -0.758700 0.229500
-0.020431 0.062774 0.229500
-1.162065 0.062774 0.014302
-0.819678 -0.822545 0.057501
0.001796 -0.001071 0.057501
-1.157657 -0.001071 -0.015351
-0.826020 -0.757262 -0.565296
-0.004546 0.064212 -0.565296
-0.041379 0.064212 -0.549096
0.786542 0.869314 -0.422628
-0.836050 -0.801276 0.338617
-0.014576 0.020198 0.338617
-1.156210 0.020198 0.123419
-0.840103 -0.775729 0.084984
-0.018629 0.045745 0.084984
-1.178082 0.045745 0.012132
-0.826392 -0.826505 -0.688407
-0.004918 -0.005031 -0.688407
-1.068341 -0.005031 -0.220678
-0.831219 -0.779437 -0.426085
-0.009745 0.042036 -0.426085
-1.118075 0.042036 -0.077885
-0.818528 -0.849567 0.363118
0.002946 -0.028093 0.363118
-1.138688 -0.028093 0.147920
-0.842750 -0.356059 0.018478
-0.021276 0.465415 0.018478
-1.137077 0.149643 -0.051631
-0.808089 -0.853540 0.472717
0.013385 -0.032066 0.472717
-1.094945 -0.032066 0.124517
-0.797334 -0.834214 -0.584846
0.024140 -0.012740 -0.584846
-1.039283 -0.012740 -0.117117
-0.817906 -0.398983 0.028251
0.003568 0.422491 0.028251
-1.112233 0.106719 -0.041858
-0.796194 -0.881652 0.085428
0.025280 -0.060178 0.085428
-1.134173 -0.060178 0.012576
-0.830064 -0.806892 0.163410
-0.008590 0.014581 0.163410
-1.168043 0.014581 0.090558
-0.802584 -0.840134 -0.616397
0.018890 -0.018660 -0.616397
-1.044533 -0.018660 -0.148668
-0.800399 -0.856430 -0.223938
0.021075 -0.034956 -0.223938
-1.120560 -0.034956 -0.008740
-0.819964 -0.825786 -0.101808
0.001510 -0.004312 -0.101808
-1.500000 -0.004312 -0.007463
-0.822397 -0.822245 0.128033
-0.000923 -0.000771 0.128033
-1.160376 -0.000771 0.055181
-0.857744 -0.768392 -0.547035
-0.036270 0.053082 -0.547035
-1.144600 0.053082 -0.198834
-0.850775 -0.345197 0.064038
-0.029301 0.476277 0.064038
-1.145102 0.160505 -0.006071
-0.826283 -0.801438 0.250139
-0.004809 0.020036 0.250139
-1.146443 0.020036 0.034941
-0.825980 -0.802563 -0.451606
-0.004506 0.018911 -0.451606
-1.500000 0.018911 0.018229
-0.804787 -0.885638 -0.375463
0.016686 -0.064164 -0.375463
-1.124948 -0.064164 -0.160265
-0.843213 -0.361260 0.115624
-0.021739 0.460214 0.115624
-1.137540 0.144442 0.045515
-0.825565 -0.811777 -0.471050
-0.004092 0.009697 -0.471050
-1.500000 0.009697 -0.001085
-0.789064 -0.455944 0.155253
0.032410 0.365530 0.155253
-1.083391 0.049758 0.085144
-0.804266 -0.427560 0.114896
0.017208 0.393914 0.114896
-1.098593 0.078143 0.044787
-0.836072 -0.786333 0.094938
-0.014598 0.035141 0.094938
-1.174051 0.035141 0.022085
-0.825328 -0.844862 -0.547786
-0.003854 -0.023388 -0.547786
-1.112184 -0.023388 -0.199586
-0.829862 -0.788739 0.440509
-0.008388 0.032735 0.440509
-1.116718 0.032735 0.092308
-0.831051 -0.783264 0.631235
-0.009577 0.038210 0.631235
-1.073000 0.038210 0.163506
-0.792375 -0.872606 0.632288
0.029099 -0.051132 0.632288
-1.034324 -0.051132 0.164559
-0.826418 -0.814803 -0.153472
-0.004944 0.006671 -0.153472
-1.164397 0.006671 -0.080620
-0.824865 -0.814086 0.103161
-0.003391 0.007388 0.103161
-1.500000 0.007388 0.009124
-0.833487 -0.797006 0.145013
-0.012013 0.024468 0.145013
-1.171466 0.024468 0.072160
-0.836152 -0.768843 0.215744
-0.014678 0.052631 0.215744
-1.156312 0.052631 0.000546
-0.834295 -0.785399 -0.036076
-0.012821 0.036075 -0.036076
-1.172274 0.036075 0.036776
-0.828075 -0.822482 0.346818
-0.006601 -0.001008 0.346818
-1.148235 -0.001008 0.131620
-0.831223 -0.794557 0.268930
-0.009749 0.026917 0.268930
-1.151383 0.026917 0.053732
-0.839821 -0.783833 0.168687
-0.018347 0.037641 0.168687
-1.177800 0.037641 0.095835
-0.799224 -0.433642 0.074236
0.022250 0.387832 0.074236
-1.093551 0.072061 0.004126
-0.794418 -0.851425 -0.603321
0.027056 -0.029951 -0.603321
-1.036367 -0.029951 -0.135592
-0.850959 -0.342135 0.019439
-0.029485 0.479339 0.019439
-1.145286 0.163568 -0.050670
-0.816366 -0.835169 0.109777
0.005108 -0.013695 0.109777
-1.500000 -0.013695 0.015206
-0.826099 -0.389089 0.094154
-0.004625 0.432385 0.094154
-1.500000 0.009194 0.000195
-0.814034 -0.826636 -0.442195
0.007440 -0.005162 -0.442195
-1.100890 -0.005162 -0.093994
-0.828119 -0.833978 -0.537575
-0.006645 -0.012504 -0.537575
-1.114975 -0.012504 -0.189374
-0.814683 -0.833441 0.044534
0.006791 -0.011967 0.044534
-1.152662 -0.011967 -0.028318
-0.821509 -0.825690 0.142751
-0.000035 -0.004216 0.142751
-1.159488 -0.004216 0.069899
-0.831178 -0.382115 0.121354
-0.009704 0.439359 0.121354
-1.125505 0.123588 0.051245
LINES 100 401
3 0 1 2
3 3 4 5
3 6 7 8
3 9 10 11
3 12 13 14
3 15 16 17
3 18 19 20
3 21 22 23
3 24 25 26
3 27 28 29
3 30 31 32
3 33 34 35
3 36 37 38
3 39 40 41
3 42 43 44
3 45 46 47
3 48 49 50
3 51 52 53
3 54 55 56
3 57 58 59
3 60 61 62
3 63 64 65
3 66 67 68
3 69 70 71
3 72 73 74
3 75 76 77
3 78 79 80
3 81 82 83
3 84 85 86
3 87 88 89
3 90 91 92
3 93 94 95
3 96 97 98
3 99 100 101
3 102 103 104
3 105 106 107
3 108 109 110
3 111 112 113
3 114 115 116
3 117 118 119
3 120 121 122
3 123 124 125
3 126 127 128
3 129 130 131
3 132 133 134
3 135 136 137
3 138 139 140
3 141 142 143
3 144 145 146
3 147 148 149
3 150 151 152
3 153 154 155
4 156 157 158 159
3 160 161 162
3 163 164 165
3 166 167 168
3 169 170 171
3 172 173 174
3 175 176 177
3 178 179 180
3 181 182 183
3 184 185 186
3 187 188 189
3 190 191 192
3 193 194 195
3 196 197 198
3 199 200 201
3 202 203 204
3 205 206 207
3 208 209 210
3 211 212 213
3 214 215 216
3 217 218 219
3 220 221 222
3 223 224 225
3 226 227 228
3 229 230 231
3 232 233 234
3 235 236 237
3 238 239 240
3 241 242 243
3 244 245 246
3 247 248 249
3 250 251 252
3 253 254 255
3 256 257 258
3 259 260 261
3 262 263 264
3 265 266 267
3 268 269 270
3 271 272 273
3 274 275 276
3 277 278 279
3 280 281 282
3 283 284 285
3 286 287 288
3 289 290 291
3 292 293 294
3 295 296 297
3 298 299 300
CELL_DATA 100
SCALARS Radiative_path_type float 1
LOOKUP_TABLE path_type
0.75
0.75
0.75
0.75
0.75
0.75
0.75
0.75
0.75
0.75
0.75
0.75
0.75
0.75
0.75
0.75
0.75
0.75
0.75
0.75
0.75
0.5
0.75
0.75
0.75
0.75
0.75
0.75
0.75
0.75
0.75
0.75
0.75
0.75
0.75
0.75
0.75
0.75
0.75
0.75
0.75
0.75
0.75
0.75
0.75
0.5
0.75
0.75
0.75
0.75
0.75
0.75
0.75
0.75
0.75
0.75
0.75
0.75
0.75
0.75
0.75
0.75
0.75
0.75
0.75
0.75
0.5
0.75
0.75
0.75
0.75
0.5
0.75
0.75
0.5
0.75
0.75
0.75
0.75
0.75
0.75
0.75
0.75
0.5
0.75
0.75
0.75
0.75
0.75
0.75
0.75
0.75
0.75
0.5
0.5
0.75
0.75
0.75
0.75
0.75
LOOKUP_TABLE path_type 5
1.0 0.0 0.0 1.0
0.0 1.0 0.0 1.0
0.0 0.0 1.0 1.0
0.0 1.0 1.0 1.0
1.0 1.0 0.0 1.0
