# vtk DataFile Version 2.0
Radiative paths
ASCII
DATASET POLYDATA
POINTS 300 float
-0.377763 -1.139306 0.054085
0.024941 -0.032886 0.054085
-1.150169 -0.032886 -0.019751
-0.394405 -1.131836 0.693155
0.008299 -0.025417 0.693155
-1.069484 -0.025417 0.219110
-0.408123 -1.079023 -0.408787
-0.005419 0.027397 -0.408787
-1.128715 0.027397 -0.055884
-0.349411 -1.168133 0.214695
0.053293 -0.061714 0.214695
-1.103757 -0.061714 -0.003409
-0.411359 -1.076241 0.414057
-0.008655 0.030179 0.414057
-1.131951 0.030179 0.061155
-0.386917 -1.124808 -0.032441
0.015787 -0.018388 -0.032441
-1.159323 -0.018388 0.041395
-0.429339 -1.062895 -0.252433
-0.026635 0.043525 -0.252433
-1.183686 0.043525 -0.034329
-0.410073 -0.670600 0.026049
-0.007369 0.435820 0.026049
-1.138237 0.115784 -0.045007
-0.359456 -1.161090 -0.250806
0.043247 -0.054670 -0.250806
-1.113803 -0.054670 -0.032702
-0.440609 -1.070048 0.521125
-0.037905 0.036372 0.521125
-1.161202 0.036372 0.168223
-0.405947 -1.100233 0.070853
-0.003243 0.006186 0.070853
-1.178353 0.006186 -0.002983
-0.437789 -0.641637 0.042803
-0.035085 0.464782 0.042803
-1.165953 0.144747 -0.028253
-0.351263 -1.178865 -0.080581
0.051441 -0.072445 -0.080581
-1.123669 -0.072445 -0.006745
-0.410696 -1.078061 0.416901
-0.007992 0.028358 0.416901
-1.131289 0.028358 0.063999
-0.351612 -1.167676 -0.228115
0.051092 -0.061256 -0.228115
-1.105958 -0.061256 -0.010011
-0.418559 -1.085922 -0.125905
-0.015855 0.020498 -0.125905
-1.190965 0.020498 -0.052069
-0.437779 -1.066870 0.332958
-0.035076 0.039550 0.332958
-1.192126 0.039550 0.114854
-0.375819 -1.146446 0.119548
0.026884 -0.040027 0.119548
-1.148225 -0.040027 0.045712
-0.365663 -1.152365 -0.651305
0.037040 -0.045945 -0.651305
-1.040743 -0.045945 -0.177260
-0.369632 -1.149862 0.464445
0.033072 -0.043443 0.464445
-1.090225 -0.043443 0.111543
-0.358054 -1.143301 0.606386
0.044650 -0.036881 0.606386
-1.033133 -0.036881 0.132341
-0.396888 -1.108711 -0.453287
0.005816 -0.002292 -0.453287
-1.500000 -0.002292 0.019790
-0.383994 -1.130842 0.060402
0.018710 -0.024422 0.060402
-1.156400 -0.024422 -0.013434
-0.353041 -1.153997 -0.615693
0.049663 -0.047577 -0.615693
-1.028120 -0.047577 -0.141648
-0.382275 -0.706834 0.153499
0.020429 0.399585 0.153499
-1.110439 0.079550 0.082443
-0.405424 -1.083915 0.412456
-0.002721 0.022505 0.412456
-1.126017 0.022505 0.059554
-0.379510 -1.138575 -0.080453
0.023194 -0.032156 -0.080453
-1.151915 -0.032156 -0.006617
-0.439563 -1.049275 -0.451478
-0.036859 0.057144 -0.451478
-1.160156 0.057144 -0.098575
-0.447655 -1.065418 0.704440
-0.044951 0.041001 0.704440
-1.122734 0.041001 0.230395
-0.385551 -1.138133 -0.680199
0.017153 -0.031713 -0.680199
-1.060630 -0.031713 -0.206154
-0.356368 -1.175753 0.143054
0.046335 -0.069334 0.143054
-1.128774 -0.069334 0.069218
-0.438822 -1.055935 -0.284941
-0.036118 0.050485 -0.284941
-1.193168 0.050485 -0.066837
-0.416541 -1.090787 0.155692
-0.013837 0.015632 0.155692
-1.188947 0.015632 0.081856
-0.448901 -1.025941 0.418696
-0.046197 0.080479 0.418696
-1.169494 0.080479 0.065794
-0.365688 -1.178899 -0.713314
0.037015 -0.072479 -0.713314
-1.040767 -0.072479 -0.239269
-0.453365 -1.038830 -0.164023
-0.050661 0.067589 -0.164023
-1.225771 0.067589 -0.090187
-0.370610 -0.719584 0.157690
0.032094 0.386836 0.157690
-1.098774 0.066800 0.086633
-0.378743 -1.144103 0.146916
0.023961 -0.037684 0.146916
-1.151149 -0.037684 0.073080
-0.413624 -1.082355 -0.443022
-0.010920 0.024064 -0.443022
-1.134216 0.024064 -0.090120
-0.363602 -1.156302 -0.256167
0.039102 -0.049882 -0.256167
-1.117949 -0.049882 -0.038063
-0.370827 -1.165659 0.519136
0.031877 -0.059239 0.519136
-1.091419 -0.059239 0.166234
-0.439184 -0.640004 0.040113
-0.036480 0.466416 0.040113
-1.167348 0.146380 -0.030943
-0.409634 -1.100745 0.157315
-0.006930 0.005674 0.157315
-1.182040 0.005674 0.083479
-0.411393 -1.088878 -0.453827
-0.008689 0.017542 -0.453827
-1.500000 0.017542 0.014693
-0.408820 -1.100479 0.135940
-0.006117 0.005940 0.135940
-1.181226 0.005940 0.062104
-0.411543 -1.094987 -0.473627
-0.008839 0.011433 -0.473627
-1.500000 0.011433 -0.005154
-0.437256 -1.045589 0.429940
-0.034552 0.060831 0.429940
-1.157848 0.060831 0.077038
-0.440566 -0.641686 0.103727
-0.037863 0.464734 0.103727
-1.168731 0.144698 0.032671
-0.339722 -1.168088 -0.606987
0.062982 -0.061669 -0.606987
-1.014801 -0.061669 -0.132942
-0.407935 -1.085620 -0.214648
-0.005231 0.020799 -0.214648
-1.162281 0.020799 0.003456
-0.406647 -1.099691 0.077690
-0.003943 0.006728 0.077690
-1.500000 0.006728 -0.016313
-0.421634 -1.063063 -0.617678
-0.018930 0.043356 -0.617678
-1.096713 0.043356 -0.143634
-0.360916 -1.170893 -0.679724
0.041787 -0.064473 -0.679724
-1.035995 -0.064473 -0.205679
-0.420929 -1.079179 -0.075524
-0.018225 0.027240 -0.075524
-1.193335 0.027240 -0.001688
-0.366047 -1.159754 0.479958
0.036656 -0.053335 0.479958
-1.086640 -0.053335 0.127056
-0.389073 -1.125725 0.092250
0.013631 -0.019305 0.092250
-1.500000 -0.019305 -0.002857
-0.350478 -0.735706 0.046842
0.052226 0.370714 0.046842
-1.078642 0.050678 -0.024214
-0.407336 -1.110931 0.505422
-0.004632 -0.004511 0.505422
-1.127928 -0.004511 0.152520
-0.446951 -1.041471 -0.646351
-0.044248 0.064948 -0.646351
-1.122030 0.064948 -0.172306
-0.357753 -0.730361 0.096578
0.044950 0.376058 0.096578
-1.085918 0.056022 0.025522
-0.399151 -1.115830 0.159343
0.003553 -0.009410 0.159343
-1.171557 -0.009410 0.085507
-0.442071 -1.049227 0.078478
-0.039367 0.057192 0.078478
-1.214477 0.057192 0.004642
-0.426584 -1.066057 -0.640125
-0.023880 0.040362 -0.640125
-1.101663 0.040362 -0.166080
-0.434358 -1.054381 -0.245134
-0.031654 0.052039 -0.245134
-1.188704 0.052039 -0.027030
-0.398253 -1.112455 -0.089585
0.004451 -0.006036 -0.089585
-1.500000 -0.006036 0.004944
-0.422133 -1.078769 0.095084
-0.019429 0.027651 0.095084
-1.194539 0.027651 0.021248
-0.363720 -1.178230 -0.527818
0.038984 -0.071811 -0.527818
-1.084312 -0.071811 -0.174916
-0.381372 -0.701864 0.034256
0.021332 0.404555 0.034256
-1.109537 0.084519 -0.036800
-0.382246 -1.131010 0.261190
0.020458 -0.024590 0.261190
-1.136592 -0.024590 0.043086
-0.416637 -1.093631 -0.491403
-0.013933 0.012789 -0.491403
-1.137229 0.012789 -0.138501
-0.460650 -1.050051 0.709158
-0.057946 0.056368 0.709158
-1.135729 0.056368 0.235113
-0.367796 -0.715997 0.024978
0.034907 0.390422 0.024978
-1.095961 0.070386 -0.046079
-0.432183 -0.653035 0.150626
-0.029479 0.453384 0.150626
-1.160347 0.133349 0.079570
-0.425988 -0.656775 0.091994
-0.023284 0.449645 0.091994
-1.154152 0.129609 0.020938
-0.465520 -1.042811 0.707466
-0.062816 0.063609 0.707466
-1.140599 0.063609 0.233421
-0.394171 -1.117768 -0.659590
0.008533 -0.011349 -0.659590
-1.500000 -0.011349 0.003913
-0.441619 -1.055227 0.479027
-0.038916 0.051193 0.479027
-1.162212 0.051193 0.126125
-0.444995 -1.045667 -0.277004
-0.042291 0.060752 -0.277004
-1.199342 0.060752 -0.058900
-0.403366 -1.118197 -0.689306
-0.000662 -0.011778 -0.689306
-1.078445 -0.011778 -0.215261
-0.341936 -1.174728 -0.629399
0.060768 -0.068308 -0.629399
-1.017015 -0.068308 -0.155354
-0.350647 -1.177751 0.050726
0.052057 -0.071331 0.050726
-1.123053 -0.071331 -0.023110
-0.423150 -1.102571 -0.714624
-0.020446 0.003849 -0.714624
-1.098229 0.003849 -0.240579
-0.452126 -1.033735 -0.267466
-0.049422 0.072684 -0.267466
-1.206472 0.072684 -0.049362
-0.387769 -0.700132 0.137521
0.014935 0.406288 0.137521
-1.115933 0.086252 0.066465
-0.351052 -1.174043 -0.656270
0.051651 -0.067623 -0.656270
-1.026132 -0.067623 -0.182225
-0.370108 -1.130126 -0.613282
0.032596 -0.023707 -0.613282
-1.045187 -0.023707 -0.139237
-0.394801 -1.116566 0.077421
0.007903 -0.010147 0.077421
-1.500000 -0.010147 -0.017325
-0.412642 -1.082676 -0.233377
-0.009938 0.023743 -0.233377
-1.166989 0.023743 -0.015273
-0.373928 -1.141680 -0.652179
0.028776 -0.035261 -0.652179
-1.049007 -0.035261 -0.178134
-0.351336 -1.164267 0.634339
0.051368 -0.057847 0.634339
-1.026415 -0.057847 0.160294
-0.359359 -1.157130 0.642736
0.043345 -0.050710 0.642736
-1.034438 -0.050710 0.168691
-0.376569 -1.147638 0.153435
0.026134 -0.041219 0.153435
-1.148975 -0.041219 0.079599
-0.449557 -1.037596 -0.458077
-0.046854 0.068823 -0.458077
-1.170150 0.068823 -0.105174
-0.357770 -1.167445 0.468277
0.044934 -0.061025 0.468277
-1.078363 -0.061025 0.115374
-0.384470 -1.134344 0.123062
0.018234 -0.027925 0.123062
-1.156876 -0.027925 0.049226
-0.419430 -1.081596 -0.465749
-0.016726 0.024823 -0.465749
-1.140022 0.024823 -0.112847
-0.361678 -1.158753 -0.457925
0.041026 -0.052334 -0.457925
-1.082271 -0.052334 -0.105023
-0.374442 -1.147587 0.107195
0.028262 -0.041167 0.107195
-1.146848 -0.041167 0.033359
-0.430675 -1.066835 0.098811
-0.027971 0.039584 0.098811
-1.203081 0.039584 0.024975
-0.420963 -0.661432 0.077032
-0.018259 0.444988 0.077032
-1.149127 0.124952 0.005976
LINES 100 400
3 0 1 2
3 3 4 5
3 6 7 8
3 9 10 11
3 12 13 14
3 15 16 17
3 18 19 20
3 21 22 23
3 24 25 26
3 27 28 29
3 30 31 32
3 33 34 35
3 36 37 38
3 39 40 41
3 42 43 44
3 45 46 47
3 48 49 50
3 51 52 53
3 54 55 56
3 57 58 59
3 60 61 62
3 63 64 65
3 66 67 68
3 69 70 71
3 72 73 74
3 75 76 77
3 78 79 80
3 81 82 83
3 84 85 86
3 87 88 89
3 90 91 92
3 93 94 95
3 96 97 98
3 99 100 101
3 102 103 104
3 105 106 107
3 108 109 110
3 111 112 113
3 114 115 116
3 117 118 119
3 120 121 122
3 123 124 125
3 126 127 128
3 129 130 131
3 132 133 134
3 135 136 137
3 138 139 140
3 141 142 143
3 144 145 146
3 147 148 149
3 150 151 152
3 153 154 155
3 156 157 158
3 159 160 161
3 162 163 164
3 165 166 167
3 168 169 170
3 171 172 173
3 174 175 176
3 177 178 179
3 180 181 182
3 183 184 185
3 186 187 188
3 189 190 191
3 192 193 194
3 195 196 197
3 198 199 200
3 201 202 203
3 204 205 206
3 207 208 209
3 210 211 212
3 213 214 215
3 216 217 218
3 219 220 221
3 222 223 224
3 225 226 227
3 228 229 230
3 231 232 233
3 234 235 236
3 237 238 239
3 240 241 242
3 243 244 245
3 246 247 248
3 249 250 251
3 252 253 254
3 255 256 257
3 258 259 260
3 261 262 263
3 264 265 266
3 267 268 269
3 270 271 272
3 273 274 275
3 276 277 278
3 279 280 281
3 282 283 284
3 285 286 287
3 288 289 290
3 291 292 293
3 294 295 296
3 297 298 299
CELL_DATA 100
SCALARS Radiative_path_type float 1
LOOKUP_TABLE path_type
0.75
0.75
0.75
0.75
0.75
0.75
0.75
0.75
0.75
0.75
0.75
0.75
0.75
0.75
0.75
0.75
0.75
0.75
0.75
0.75
0.75
0.5
0.75
0.75
0.75
0.75
0.75
0.75
0.75
0.75
0.75
0.75
0.75
0.75
0.75
0.75
0.75
0.75
0.75
0.75
0.75
0.75
0.75
0.5
0.75
0.5
0.75
0.75
0.75
0.75
0.5
0.75
0.75
0.75
0.75
0.5
0.75
0.75
0.75
0.75
0.75
0.75
0.75
0.75
0.5
0.75
0.75
0.75
0.75
0.75
0.75
0.75
0.75
0.75
0.75
0.5
0.75
0.75
0.75
0.75
0.75
0.75
0.75
0.75
0.75
0.75
0.5
0.75
0.75
0.75
0.75
0.75
0.75
0.75
0.75
0.75
0.75
0.75
0.75
0.75
LOOKUP_TABLE path_type 5
1.0 0.0 0.0 1.0
0.0 1.0 0.0 1.0
0.0 0.0 1.0 1.0
0.0 1.0 1.0 1.0
1.0 1.0 0.0 1.0
