# vtk DataFile Version 2.0
absorber
ASCII
DATASET POLYDATA
POINTS 4225 float
-0.121094 1.500000 -0.121094
-0.125000 1.500000 -0.125000
-0.121094 1.500000 -0.125000
-0.125000 1.500000 -0.121094
-0.121094 1.500000 -0.117188
-0.125000 1.500000 -0.117188
-0.121094 1.500000 -0.113281
-0.125000 1.500000 -0.113281
-0.121094 1.500000 -0.109375
-0.125000 1.500000 -0.109375
-0.121094 1.500000 -0.105469
-0.125000 1.500000 -0.105469
-0.121094 1.500000 -0.101562
-0.125000 1.500000 -0.101562
-0.121094 1.500000 -0.097656
-0.125000 1.500000 -0.097656
-0.121094 1.500000 -0.093750
-0.125000 1.500000 -0.093750
-0.121094 1.500000 -0.089844
-0.125000 1.500000 -0.089844
-0.121094 1.500000 -0.085938
-0.125000 1.500000 -0.085938
-0.121094 1.500000 -0.082031
-0.125000 1.500000 -0.082031
-0.121094 1.500000 -0.078125
-0.125000 1.500000 -0.078125
-0.121094 1.500000 -0.074219
-0.125000 1.500000 -0.074219
-0.121094 1.500000 -0.070312
-0.125000 1.500000 -0.070312
-0.121094 1.500000 -0.066406
-0.125000 1.500000 -0.066406
-0.121094 1.500000 -0.062500
-0.125000 1.500000 -0.062500
-0.121094 1.500000 -0.058594
-0.125000 1.500000 -0.058594
-0.121094 1.500000 -0.054688
-0.125000 1.500000 -0.054688
-0.121094 1.500000 -0.050781
-0.125000 1.500000 -0.050781
-0.121094 1.500000 -0.046875
-0.125000 1.500000 -0.046875
-0.121094 1.500000 -0.042969
-0.125000 1.500000 -0.042969
-0.121094 1.500000 -0.039062
-0.125000 1.500000 -0.039062
-0.121094 1.500000 -0.035156
-0.125000 1.500000 -0.035156
-0.121094 1.500000 -0.031250
-0.125000 1.500000 -0.031250
-0.121094 1.500000 -0.027344
-0.125000 1.500000 -0.027344
-0.121094 1.500000 -0.023438
-0.125000 1.500000 -0.023438
-0.121094 1.500000 -0.019531
-0.125000 1.500000 -0.019531
-0.121094 1.500000 -0.015625
-0.125000 1.500000 -0.015625
-0.121094 1.500000 -0.011719
-0.125000 1.500000 -0.011719
-0.121094 1.500000 -0.007812
-0.125000 1.500000 -0.007812
-0.121094 1.500000 -0.003906
-0.125000 1.500000 -0.003906
-0.121094 1.500000 0.000000
-0.125000 1.500000 0.000000
-0.121094 1.500000 0.003906
-0.125000 1.500000 0.003906
-0.121094 1.500000 0.007812
-0.125000 1.500000 0.007812
-0.121094 1.500000 0.011719
-0.125000 1.500000 0.011719
-0.121094 1.500000 0.015625
-0.125000 1.500000 0.015625
-0.121094 1.500000 0.019531
-0.125000 1.500000 0.019531
-0.121094 1.500000 0.023438
-0.125000 1.500000 0.023438
-0.121094 1.500000 0.027344
-0.125000 1.500000 0.027344
-0.121094 1.500000 0.031250
-0.125000 1.500000 0.031250
-0.121094 1.500000 0.035156
-0.125000 1.500000 0.035156
-0.121094 1.500000 0.039062
-0.125000 1.500000 0.039062
-0.121094 1.500000 0.042969
-0.125000 1.500000 0.042969
-0.121094 1.500000 0.046875
-0.125000 1.500000 0.046875
-0.121094 1.500000 0.050781
-0.125000 1.500000 0.050781
-0.121094 1.500000 0.054688
-0.125000 1.500000 0.054688
-0.121094 1.500000 0.058594
-0.125000 1.500000 0.058594
-0.121094 1.500000 0.062500
-0.125000 1.500000 0.062500
-0.121094 1.500000 0.066406
-0.125000 1.500000 0.066406
-0.121094 1.500000 0.070312
-0.125000 1.500000 0.070312
-0.121094 1.500000 0.074219
-0.125000 1.500000 0.074219
-0.121094 1.500000 0.078125
-0.125000 1.500000 0.078125
-0.121094 1.500000 0.082031
-0.125000 1.500000 0.082031
-0.121094 1.500000 0.085938
-0.125000 1.500000 0.085938
-0.121094 1.500000 0.089844
-0.125000 1.500000 0.089844
-0.121094 1.500000 0.093750
-0.125000 1.500000 0.093750
-0.121094 1.500000 0.097656
-0.125000 1.500000 0.097656
-0.121094 1.500000 0.101562
-0.125000 1.500000 0.101562
-0.121094 1.500000 0.105469
-0.125000 1.500000 0.105469
-0.121094 1.500000 0.109375
-0.125000 1.500000 0.109375
-0.121094 1.500000 0.113281
-0.125000 1.500000 0.113281
-0.121094 1.500000 0.117188
-0.125000 1.500000 0.117188
-0.121094 1.500000 0.121094
-0.125000 1.500000 0.121094
-0.121094 1.500000 0.125000
-0.125000 1.500000 0.125000
-0.117188 1.500000 -0.121094
-0.117188 1.500000 -0.125000
-0.117188 1.500000 -0.117188
-0.117188 1.500000 -0.113281
-0.117188 1.500000 -0.109375
-0.117188 1.500000 -0.105469
-0.117188 1.500000 -0.101562
-0.117188 1.500000 -0.097656
-0.117188 1.500000 -0.093750
-0.117188 1.500000 -0.089844
-0.117188 1.500000 -0.085938
-0.117188 1.500000 -0.082031
-0.117188 1.500000 -0.078125
-0.117188 1.500000 -0.074219
-0.117188 1.500000 -0.070312
-0.117188 1.500000 -0.066406
-0.117188 1.500000 -0.062500
-0.117188 1.500000 -0.058594
-0.117188 1.500000 -0.054688
-0.117188 1.500000 -0.050781
-0.117188 1.500000 -0.046875
-0.117188 1.500000 -0.042969
-0.117188 1.500000 -0.039062
-0.117188 1.500000 -0.035156
-0.117188 1.500000 -0.031250
-0.117188 1.500000 -0.027344
-0.117188 1.500000 -0.023438
-0.117188 1.500000 -0.019531
-0.117188 1.500000 -0.015625
-0.117188 1.500000 -0.011719
-0.117188 1.500000 -0.007812
-0.117188 1.500000 -0.003906
-0.117188 1.500000 0.000000
-0.117188 1.500000 0.003906
-0.117188 1.500000 0.007812
-0.117188 1.500000 0.011719
-0.117188 1.500000 0.015625
-0.117188 1.500000 0.019531
-0.117188 1.500000 0.023438
-0.117188 1.500000 0.027344
-0.117188 1.500000 0.031250
-0.117188 1.500000 0.035156
-0.117188 1.500000 0.039062
-0.117188 1.500000 0.042969
-0.117188 1.500000 0.046875
-0.117188 1.500000 0.050781
-0.117188 1.500000 0.054688
-0.117188 1.500000 0.058594
-0.117188 1.500000 0.062500
-0.117188 1.500000 0.066406
-0.117188 1.500000 0.070312
-0.117188 1.500000 0.074219
-0.117188 1.500000 0.078125
-0.117188 1.500000 0.082031
-0.117188 1.500000 0.085938
-0.117188 1.500000 0.089844
-0.117188 1.500000 0.093750
-0.117188 1.500000 0.097656
-0.117188 1.500000 0.101562
-0.117188 1.500000 0.105469
-0.117188 1.500000 0.109375
-0.117188 1.500000 0.113281
-0.117188 1.500000 0.117188
-0.117188 1.500000 0.121094
-0.117188 1.500000 0.125000
-0.113281 1.500000 -0.121094
-0.113281 1.500000 -0.125000
-0.113281 1.500000 -0.117188
-0.113281 1.500000 -0.113281
-0.113281 1.500000 -0.109375
-0.113281 1.500000 -0.105469
-0.113281 1.500000 -0.101562
-0.113281 1.500000 -0.097656
-0.113281 1.500000 -0.093750
-0.113281 1.500000 -0.089844
-0.113281 1.500000 -0.085938
-0.113281 1.500000 -0.082031
-0.113281 1.500000 -0.078125
-0.113281 1.500000 -0.074219
-0.113281 1.500000 -0.070312
-0.113281 1.500000 -0.066406
-0.113281 1.500000 -0.062500
-0.113281 1.500000 -0.058594
-0.113281 1.500000 -0.054688
-0.113281 1.500000 -0.050781
-0.113281 1.500000 -0.046875
-0.113281 1.500000 -0.042969
-0.113281 1.500000 -0.039062
-0.113281 1.500000 -0.035156
-0.113281 1.500000 -0.031250
-0.113281 1.500000 -0.027344
-0.113281 1.500000 -0.023438
-0.113281 1.500000 -0.019531
-0.113281 1.500000 -0.015625
-0.113281 1.500000 -0.011719
-0.113281 1.500000 -0.007812
-0.113281 1.500000 -0.003906
-0.113281 1.500000 0.000000
-0.113281 1.500000 0.003906
-0.113281 1.500000 0.007812
-0.113281 1.500000 0.011719
-0.113281 1.500000 0.015625
-0.113281 1.500000 0.019531
-0.113281 1.500000 0.023438
-0.113281 1.500000 0.027344
-0.113281 1.500000 0.031250
-0.113281 1.500000 0.035156
-0.113281 1.500000 0.039062
-0.113281 1.500000 0.042969
-0.113281 1.500000 0.046875
-0.113281 1.500000 0.050781
-0.113281 1.500000 0.054688
-0.113281 1.500000 0.058594
-0.113281 1.500000 0.062500
-0.113281 1.500000 0.066406
-0.113281 1.500000 0.070312
-0.113281 1.500000 0.074219
-0.113281 1.500000 0.078125
-0.113281 1.500000 0.082031
-0.113281 1.500000 0.085938
-0.113281 1.500000 0.089844
-0.113281 1.500000 0.093750
-0.113281 1.500000 0.097656
-0.113281 1.500000 0.101562
-0.113281 1.500000 0.105469
-0.113281 1.500000 0.109375
-0.113281 1.500000 0.113281
-0.113281 1.500000 0.117188
-0.113281 1.500000 0.121094
-0.113281 1.500000 0.125000
-0.109375 1.500000 -0.121094
-0.109375 1.500000 -0.125000
-0.109375 1.500000 -0.117188
-0.109375 1.500000 -0.113281
-0.109375 1.500000 -0.109375
-0.109375 1.500000 -0.105469
-0.109375 1.500000 -0.101562
-0.109375 1.500000 -0.097656
-0.109375 1.500000 -0.093750
-0.109375 1.500000 -0.089844
-0.109375 1.500000 -0.085938
-0.109375 1.500000 -0.082031
-0.109375 1.500000 -0.078125
-0.109375 1.500000 -0.074219
-0.109375 1.500000 -0.070312
-0.109375 1.500000 -0.066406
-0.109375 1.500000 -0.062500
-0.109375 1.500000 -0.058594
-0.109375 1.500000 -0.054688
-0.109375 1.500000 -0.050781
-0.109375 1.500000 -0.046875
-0.109375 1.500000 -0.042969
-0.109375 1.500000 -0.039062
-0.109375 1.500000 -0.035156
-0.109375 1.500000 -0.031250
-0.109375 1.500000 -0.027344
-0.109375 1.500000 -0.023438
-0.109375 1.500000 -0.019531
-0.109375 1.500000 -0.015625
-0.109375 1.500000 -0.011719
-0.109375 1.500000 -0.007812
-0.109375 1.500000 -0.003906
-0.109375 1.500000 0.000000
-0.109375 1.500000 0.003906
-0.109375 1.500000 0.007812
-0.109375 1.500000 0.011719
-0.109375 1.500000 0.015625
-0.109375 1.500000 0.019531
-0.109375 1.500000 0.023438
-0.109375 1.500000 0.027344
-0.109375 1.500000 0.031250
-0.109375 1.500000 0.035156
-0.109375 1.500000 0.039062
-0.109375 1.500000 0.042969
-0.109375 1.500000 0.046875
-0.109375 1.500000 0.050781
-0.109375 1.500000 0.054688
-0.109375 1.500000 0.058594
-0.109375 1.500000 0.062500
-0.109375 1.500000 0.066406
-0.109375 1.500000 0.070312
-0.109375 1.500000 0.074219
-0.109375 1.500000 0.078125
-0.109375 1.500000 0.082031
-0.109375 1.500000 0.085938
-0.109375 1.500000 0.089844
-0.109375 1.500000 0.093750
-0.109375 1.500000 0.097656
-0.109375 1.500000 0.101562
-0.109375 1.500000 0.105469
-0.109375 1.500000 0.109375
-0.109375 1.500000 0.113281
-0.109375 1.500000 0.117188
-0.109375 1.500000 0.121094
-0.109375 1.500000 0.125000
-0.105469 1.500000 -0.121094
-0.105469 1.500000 -0.125000
-0.105469 1.500000 -0.117188
-0.105469 1.500000 -0.113281
-0.105469 1.500000 -0.109375
-0.105469 1.500000 -0.105469
-0.105469 1.500000 -0.101562
-0.105469 1.500000 -0.097656
-0.105469 1.500000 -0.093750
-0.105469 1.500000 -0.089844
-0.105469 1.500000 -0.085938
-0.105469 1.500000 -0.082031
-0.105469 1.500000 -0.078125
-0.105469 1.500000 -0.074219
-0.105469 1.500000 -0.070312
-0.105469 1.500000 -0.066406
-0.105469 1.500000 -0.062500
-0.105469 1.500000 -0.058594
-0.105469 1.500000 -0.054688
-0.105469 1.500000 -0.050781
-0.105469 1.500000 -0.046875
-0.105469 1.500000 -0.042969
[...]
CELL_DATA 8192
SCALARS Front_faces_Incoming_flux double 2
LOOKUP_TABLE default
0 0
0 0
0 0
0 0
0 0
0 0
0 0
0 0
0 0
0 0
0 0
0 0
0 0
0 0
0 0
0 0
0 0
0 0
0 0
0 0
0 0
0 0
0 0
0 0
0 0
0 0
0 0
0 0
0 0
0 0
0 0
0 0
0 0
0 0
0 0
0 0
0 0
0 0
0 0
0 0
0 0
0 0
0 0
0 0
0 0
0 0
0 0
0 0
0 0
0 0
0 0
0 0
0 0
0 0
0 0
0 0
0 0
0 0
0 0
0 0
0 0
0 0
0 0
0 0
0 0
0 0
0 0
0 0
0 0
0 0
0 0
0 0
0 0
0 0
0 0
0 0
0 0
0 0
0 0
0 0
0 0
0 0
0 0
0 0
0 0
0 0
0 0
0 0
0 0
0 0
0 0
0 0
0 0
0 0
0 0
0 0
0 0
0 0
0 0
0 0
0 0
0 0
0 0
0 0
0 0
0 0
0 0
0 0
0 0
0 0
0 0
0 0
0 0
0 0
0 0
0 0
0 0
0 0
0 0
0 0
0 0
0 0
0 0
0 0
0 0
0 0
0 0
0 0
0 0
0 0
0 0
0 0
0 0
0 0
0 0
0 0
0 0
0 0
0 0
0 0
0 0
0 0
0 0
0 0
0 0
0 0
0 0
0 0
0 0
0 0
0 0
0 0
0 0
0 0
0 0
0 0
0 0
0 0
0 0
0 0
0 0
0 0
0 0
0 0
0 0
0 0
0 0
0 0
0 0
0 0
0 0
0 0
0 0
0 0
0 0
0 0
0 0
0 0
0 0
0 0
0 0
0 0
0 0
0 0
0 0
0 0
0 0
0 0
0 0
0 0
0 0
0 0
0 0
0 0
0 0
0 0
0 0
0 0
0 0
0 0
0 0
0 0
0 0
0 0
0 0
0 0
0 0
0 0
0 0
0 0
0 0
0 0
0 0
0 0
0 0
0 0
0 0
0 0
0 0
0 0
0 0
0 0
0 0
0 0
0 0
0 0
0 0
0 0
0 0
0 0
0 0
0 0
0 0
0 0
0 0
0 0
0 0
0 0
0 0
0 0
0 0
0 0
0 0
0 0
0 0
0 0
0 0
0 0
0 0
0 0
0 0
0 0
0 0
0 0
0 0
0 0
0 0
0 0
0 0
0 0
0 0
0 0
0 0
0 0
0 0
0 0
0 0
0 0
0 0
0 0
0 0
0 0
0 0
0 0
0 0
0 0
0 0
0 0
0 0
0 0
0 0
0 0
0 0
0 0
0 0
0 0
0 0
0 0
0 0
0 0
0 0
0 0
0 0
0 0
0 0
0 0
0 0
0 0
0 0
0 0
0 0
0 0
0 0
0 0
0 0
0 0
0 0
0 0
0 0
0 0
0 0
0 0
0 0
0 0
0 0
0 0
0 0
0 0
0 0
0 0
0 0
0 0
0 0
0 0
0 0
0 0
0 0
0 0
0 0
0 0
0 0
0 0
0 0
0 0
0 0
0 0
0 0
0 0
0 0
0 0
0 0
0 0
0 0
0 0
0 0
0 0
0 0
0 0
0 0
0 0
0 0
0 0
0 0
0 0
0 0
0 0
0 0
0 0
0 0
0 0
0 0
0 0
0 0
0 0
0 0
0 0
0 0
0 0
0 0
0 0
0 0
0 0
0 0
0 0
0 0
0 0
0 0
0 0
0 0
0 0
0 0
0 0
0 0
0 0
0 0
0 0
0 0
0 0
0 0
0 0
0 0
0 0
0 0
0 0
0 0
0 0
0 0
0 0
0 0
0 0
0 0
0 0
0 0
0 0
0 0
0 0
0 0
0 0
0 0
0 0
0 0
0 0
0 0
0 0
0 0
0 0
0 0
0 0
0 0
0 0
0 0
0 0
0 0
0 0
0 0
0 0
0 0
0 0
0 0
0 0
0 0
0 0
0 0
0 0
0 0
0 0
0 0
0 0
0 0
0 0
0 0
0 0
0 0
0 0
0 0
0 0
0 0
0 0
0 0
0 0
0 0
0 0
0 0
0 0
0 0
0 0
0 0
0 0
0 0
0 0
0 0
0 0
0 0
0 0
0 0
0 0
0 0
0 0
0 0
0 0
0 0
0 0
0 0
0 0
0 0
0 0
0 0
0 0
0 0
0 0
0 0
0 0
0 0
0 0
0 0
0 0
0 0
0 0
0 0
0 0
0 0
0 0
0 0
0 0
0 0
0 0
0 0
0 0
0 0
0 0
0 0
0 0
0 0
0 0
0 0
0 0
0 0
0 0
0 0
0 0
0 0
0 0
0 0
0 0
0 0
0 0
0 0
0 0
0 0
0 0
0 0
0 0
0 0
0 0
0 0
0 0
0 0
0 0
0 0
0 0
0 0
0 0
0 0
0 0
0 0
0 0
0 0
0 0
0 0
0 0
0 0
0 0
0 0
0 0
0 0
0 0
0 0
0 0
0 0
0 0
0 0
0 0
0 0
0 0
0 0
0 0
0 0
0 0
0 0
0 0
0 0
0 0
0 0
0 0
0 0
0 0
0 0
0 0
0 0
0 0
0 0
0 0
0 0
0 0
0 0
0 0
0 0
0 0
0 0
0 0
0 0
0 0
0 0
0 0
0 0
0 0
0 0
0 0
0 0
0 0
0 0
0 0
0 0
0 0
0 0
0 0
0 0
0 0
0 0
0 0
0 0
0 0
0 0
0 0
0 0
0 0
0 0
0 0
0 0
0 0
0 0
0 0
0 0
0 0
0 0
0 0
0 0
0 0
0 0
0 0
0 0
0 0
0 0
0 0
0 0
0 0
0 0
0 0
0 0
0 0
0 0
0 0
0 0
0 0
0 0
0 0
0 0
0 0
0 0
0 0
0 0
0 0
0 0
0 0
0 0
0 0
0 0
0 0
0 0
0 0
0 0
0 0
0 0
0 0
0 0
0 0
0 0
0 0
0 0
0 0
0 0
0 0
0 0
0 0
0 0
0 0
0 0
0 0
0 0
0 0
0 0
0 0
0 0
0 0
0 0
0 0
0 0
0 0
0 0
0 0
0 0
0 0
0 0
0 0
0 0
0 0
0 0
0 0
0 0
0 0
0 0
0 0
0 0
0 0
0 0
0 0
0 0
0 0
0 0
0 0
0 0
0 0
0 0
0 0
0 0
0 0
0 0
0 0
0 0
0 0
0 0
0 0
0 0
0 0
0 0
0 0
0 0
0 0
0 0
0 0
0 0
0 0
0 0
0 0
0 0
0 0
0 0
0 0
0 0
0 0
0 0
0 0
0 0
0 0
0 0
0 0
0 0
0 0
0 0
0 0
0 0
0 0
0 0
0 0
0 0
0 0
0 0
0 0
0 0
0 0
0 0
0 0
0 0
0 0
0 0
0 0
0 0
0 0
0 0
0 0
0 0
0 0
0 0
0 0
0 0
0 0
0 0
0 0
0 0
0 0
0 0
0 0
0 0
0 0
0 0
0 0
0 0
0 0
0 0
0 0
0 0
0 0
0 0
0 0
0 0
0 0
0 0
0 0
0 0
0 0
0 0
0 0
0 0
0 0
0 0
0 0
0 0
0 0
0 0
0 0
0 0
0 0
0 0
0 0
0 0
0 0
0 0
0 0
0 0
0 0
0 0
0 0
0 0
0 0
0 0
0 0
0 0
0 0
0 0
0 0
0 0
0 0
0 0
0 0
0 0
0 0
0 0
0 0
0 0
0 0
0 0
0 0
0 0
0 0
0 0
0 0
0 0
0 0
0 0
0 0
0 0
0 0
0 0
0 0
0 0
0 0
0 0
0 0
0 0
0 0
0 0
0 0
0 0
0 0
0 0
0 0
0 0
0 0
0 0
0 0
0 0
0 0
0 0
0 0
0 0
0 0
0 0
0 0
0 0
0 0
0 0
0 0
0 0
0 0
0 0
0 0
0 0
0 0
0 0
0 0
0 0
0 0
0 0
0 0
0 0
0 0
0 0
0 0
0 0
0 0
0 0
0 0
0 0
0 0
0 0
0 0
0 0
0 0
0 0
0 0
0 0
0 0
0 0
0 0
0 0
0 0
0 0
0 0
0 0
0 0
0 0
0 0
0 0
0 0
0 0
0 0
0 0
0 0
0 0
0 0
0 0
0 0
0 0
0 0
0 0
0 0
0 0
0 0
0 0
0 0
0 0
0 0
0 0
0 0
0 0
0 0
0 0
0 0
0 0
0 0
0 0
0 0
0 0
0 0
0 0
0 0
0 0
0 0
0 0
0 0
0 0
0 0
0 0
0 0
0 0
0 0
0 0
0 0
0 0
0 0
0 0
0 0
0 0
0 0
0 0
0 0
0 0
0 0
0 0
0 0
0 0
0 0
0 0
0 0
0 0
0 0
0 0
0 0
0 0
0 0
0 0
0 0
0 0
0 0
0 0
0 0
0 0
0 0
0 0
0 0
0 0
0 0
0 0
0 0
0 0
0 0
0 0
0 0
0 0
0 0
0 0
0 0
0 0
0 0
0 0
0 0
0 0
0 0
0 0
0 0
0 0
0 0
0 0
0 0
0 0
0 0
0 0
0 0
0 0
0 0
0 0
0 0
0 0
0 0
0 0
0 0
0 0
0 0
0 0
0 0
0 0
0 0
0 0
0 0
0 0
0 0
0 0
0 0
0 0
0 0
0 0
0 0
0 0
0 0
0 0
0 0
0 0
0 0
0 0
0 0
0 0
0 0
0 0
0 0
0 0
0 0
0 0
0 0
0 0
0 0
0 0
0 0
0 0
0 0
0 0
0 0
0 0
0 0
0 0
0 0
0 0
0 0
0 0
0 0
0 0
0 0
0 0
0 0
0 0
0 0
0 0
0 0
0 0
0 0
0 0
0 0
0 0
0 0
0 0
0 0
0 0
0 0
0 0
0 0
0 0
0 0
0 0
0 0
0 0
0 0
0 0
0 0
0 0
0 0
0 0
0 0
0 0
0 0
0 0
0 0
0 0
0 0
0 0
0 0
0 0
0 0
0 0
0 0
0 0
0 0
0 0
0 0
0 0
0 0
0 0
0 0
0 0
0 0
0 0
0 0
0 0
0 0
0 0
0 0
0 0
0 0
0 0
0 0
0 0
0 0
0 0
0 0
0 0
0 0
0 0
0 0
0 0
0 0
0 0
0 0
0 0
0 0
0 0
0 0
0 0
0 0
0 0
0 0
0 0
0 0
0 0
0 0
0 0
0 0
0 0
0 0
0 0
0 0
0 0
0 0
0 0
0 0
0 0
0 0
0 0
0 0
0 0
0 0
0 0
0 0
0 0
0 0
0 0
0 0
0 0
0 0
0 0
0 0
0 0
0 0
0 0
0 0
0 0
0 0
0 0
0 0
0 0
0 0
0 0
0 0
0 0
0 0
0 0
0 0
0 0
0 0
0 0
0 0
0 0
0 0
0 0
0 0
0 0
0 0
0 0
0 0
0 0
0 0
0 0
0 0
0 0
0 0
0 0
0 0
0 0
0 0
0 0
0 0
0 0
0 0
0 0
0 0
0 0
0 0
0 0
0 0
0 0
0 0
0 0
0 0
0 0
0 0
0 0
0 0
0 0
0 0
0 0
0 0
0 0
0 0
0 0
0 0
0 0
0 0
0 0
0 0
0 0
0 0
0 0
0 0
0 0
0 0
0 0
0 0
0 0
0 0
0 0
0 0
0 0
0 0
0 0
0 0
0 0
0 0
0 0
0 0
0 0
0 0
0 0
0 0
0 0
0 0
0 0
0 0
0 0
0 0
0 0
0 0
0 0
0 0
0 0
0 0
0 0
0 0
0 0
0 0
0 0
0 0
0 0
0 0
0 0
0 0
0 0
0 0
0 0
0 0
0 0
0 0
0 0
0 0
0 0
0 0
0 0
0 0
0 0
0 0
0 0
0 0
0 0
0 0
0 0
0 0
0 0
0 0
0 0
0 0
0 0
0 0
0 0
0 0
0 0
0 0
0 0
0 0
0 0
0 0
0 0
0 0
0 0
0 0
0 0
0 0
0 0
0 0
0 0
0 0
0 0
0 0
0 0
0 0
0 0
0 0
0 0
0 0
0 0
0 0
0 0
0 0
0 0
0 0
0 0
0 0
0 0
0 0
0 0
0 0
0 0
0 0
0 0
0 0
0 0
0 0
0 0
0 0
0 0
0 0
0 0
0 0
0 0
0 0
0 0
0 0
0 0
0 0
0 0
0 0
0 0
0 0
0 0
0 0
0 0
0 0
0 0
0 0
0 0
0 0
0 0
0 0
0 0
0 0
0 0
0 0
0 0
0 0
0 0
0 0
0 0
0 0
0 0
0 0
0 0
0 0
0 0
0 0
0 0
0 0
0 0
0 0
0 0
0 0
0 0
0 0
0 0
0 0
0 0
0 0
0 0
0 0
0 0
0 0
0 0
0 0
0 0
0 0
0 0
0 0
0 0
0 0
0 0
0 0
0 0
0 0
0 0
0 0
0 0
0 0
0 0
0 0
0 0
0 0
0 0
0 0
0 0
0 0
0 0
0 0
0 0
0 0
0 0
0 0
0 0
0 0
0 0
0 0
0 0
0 0
0 0
0 0
0 0
0 0
0 0
0 0
0 0
0 0
0 0
0 0
0 0
0 0
0 0
0 0
0 0
0 0
0 0
0 0
0 0
0 0
0 0
0 0
0 0
0 0
0 0
0 0
0 0
0 0
0 0
0 0
0 0
0 0
0 0
0 0
0 0
0 0
0 0
0 0
0 0
0 0
0 0
0 0
0 0
0 0
0 0
0 0
0 0
0 0
0 0
0 0
0 0
0 0
0 0
0 0
0 0
0 0
0 0
0 0
0 0
0 0
0 0
0 0
0 0
0 0
0 0
0 0
0 0
0 0
0 0
0 0
0 0
0 0
0 0
0 0
0 0
0 0
0 0
0 0
0 0
0 0
0 0
0 0
0 0
0 0
0 0
0 0
0 0
0 0
0 0
0 0
0 0
0 0
0 0
0 0
194.166 194.166
0 0
582.499 336.305
0 0
194.663 194.663
0 0
3113.48 778.365
1363.05 515.184
3689.85 846.51
1745.19 581.732
4656.16 950.429
2526 700.584
5822.79 1063.08
1749.13 583.043
4658.08 950.823
2135.89 643.996
4068.77 887.884
1938.47 612.998
5043.56 989.119
1938.85 613.118
3885.45 868.807
2324.08 670.902
5045.75 989.547
1359.69 513.914
5824.13 1063.33
1552.3 548.822
6010.95 1079.59
2911.56 751.761
5627.6 1045.01
2134.23 643.496
5633.14 1046.04
2327.25 671.817
4855.87 971.164
1166.18 476.092
4460.67 930.107
1359.67 513.906
4855.81 971.154
969.484 433.568
3498.14 824.514
1745.96 581.988
4855.55 971.102
2523.45 699.879
5044.92 989.382
2523.91 700.004
4847.98 969.59
1942.87 614.388
4853.53 970.699
386.659 273.409
5053.21 991.007
1748.44 582.813
6021.87 1081.55
1746.87 582.291
5048.54 990.092
777.796 388.897
5048.78 990.138
1555.67 550.011
4468.82 931.806
1943.62 614.626
5049.17 990.215
1358.96 513.638
5431.9 1026.52
2329.69 672.52
4655.54 950.304
1549.97 547.996
5822.28 1062.99
1940.41 613.611
5617.67 1043.17
1939.74 613.401
5423.12 1024.87
1939.58 613.348
5048.75 990.138
1554.28 549.518
2723.49 727.878
1751.34 583.778
2720.81 727.164
389.648 275.522
776.176 388.089
194.639 194.639
388.241 274.527
194.12 194.12
193.297 193.296
0 0
0 0
0 0
0 0
0 0
0 0
0 0
0 0
0 0
0 0
0 0
0 0
0 0
0 0
0 0
0 0
0 0
0 0
0 0
0 0
0 0
0 0
0 0
0 0
0 0
0 0
0 0
0 0
0 0
0 0
0 0
0 0
0 0
0 0
0 0
0 0
0 0
0 0
0 0
0 0
0 0
0 0
0 0
0 0
0 0
771.855 385.929
773.449 386.724
2514.69 697.45
2713.59 725.237
2904.77 750.01
2905.22 750.124
6004.61 1078.46
4067.6 887.623
8900.32 1312.27
6786.85 1147.18
10221.7 1404.08
10059.5 1395
13890 1636.96
8127.46 1254.1
16419.1 1780.88
11224.2 1473.79
16211.4 1768.77
7937.66 1239.64
12725.7 1566.41
9875.95 1382.89
11583.5 1495.42
7737.51 1223.41
14288.3 1660.97
11992.3 1522.99
11207.5 1471.61
11425.4 1487.44
10819.5 1445.8
7920.74 1237.02
11586.5 1495.8
9284.3 1340.06
14500.8 1674.38
9867.33 1381.69
13923.5 1640.87
8916.67 1314.67
14870.7 1694.63
9486.83 1355.24
12943.9 1581.33
8130.09 1254.49
10643.3 1435.13
7930.49 1238.53
8895.06 1311.5
10063.3 1395.51
10239.1 1406.44
10447.3 1421.68
11211.6 1472.14
10657.1 1436.98
11592.9 1496.62
9296.75 1341.85
12335.3 1541.9
9095.49 1326.7
11592.3 1496.54
8325.26 1269.58
10818.1 1445.63
9481.89 1354.54
9858.63 1380.48
7548.42 1208.71
11771.4 1507.16
10253.5 1408.41
13133.7 1592.68
9275.6 1338.81
11965.4 1519.6
10459.4 1423.33
14868.6 1694.41
8711.3 1298.59
11574.3 1494.24
11228 1474.3
13125.8 1591.73
9846.09 1378.74
14460.4 1669.74
10454.8 1422.69
12545.9 1556.11
8700.8 1297.04
12537.8 1555.11
9086.79 1325.43
10250.3 1407.97
7373.56 1196.13
6196.3 1095.36
4855.47 971.086
2709.02 724.016
2521.11 699.227
3094.61 773.651
2711.09 724.567
963.289 430.799
773.186 386.592
193.297 193.296
0 0
0 0
0 0
0 0
0 0
0 0
0 0
0 0
0 0
0 0
0 0
0 0
0 0
0 0
0 0
0 0
0 0
0 0
0 0
0 0
0 0
0 0
0 0
0 0
0 0
0 0
0 0
0 0
0 0
0 0
0 0
0 0
0 0
0 0
0 0
0 0
0 0
0 0
0 0
0 0
0 0
0 0
0 0
2106.21 635.06
1541.7 545.084
4801.81 960.383
3666.58 841.173
8275.34 1261.98
5977.6 1073.61
11790.4 1498.83
12509.8 1541.46
23248.1 2082.59
19810 1943.77
29310 2349.04
17845.5 1841.73
27830.7 2297.04
24337.5 2159.88
27564.1 2276.3
19776.2 1948.66
25760.5 2210.51
20085.2 1960.65
26428.9 2242.49
19763.3 1947.38
26916.2 2267.22
18041.3 1860.86
22162.8 2058.27
20154.8 1966.93
23171.9 2106.6
22085.7 2059.5
25186.4 2192.27
23600.5 2127.97
27409.2 2292.07
19394.2 1929.78
22003.5 2051.9
19385.7 1928.96
22368.3 2067.99
18463.9 1884.45
23960.2 2143.08
23606.5 2128.5
29269.2 2366.25
23265.1 2114.98
24123.8 2149.14
23229.2 2111.73
20308.2 1972.52
19392.6 1929.63
23534.5 2122.05
19597.3 1940.42
23223.4 2111.21
17107.3 1813.39
21616.1 2033.51
18259.8 1873.4
22979.1 2097.68
23823.2 2139.37
22954.6 2095.5
18803.3 1899.44
23517 2120.49
20511.5 1982.93
24267.9 2153.49
20770 1998.58
24144.3 2151
15922.5 1747.76
25651.2 2215.97
20370.7 1978.6
26226.9 2240.76
23994.3 2146.15
22283.6 2060.53
19585.8 1939.34
20415.9 1974.07
23252.9 2113.91
27442 2287.33
19883.4 1950.14
28588.5 2327.94
22180.2 2060.01
29771.5 2370.71
21171 2009.93
31177.7 2429.26
20124.3 1956.15
20599.5 1966.21
15010.8 1690.62
13189.7 1568.77
6903.98 1151.1
8067.99 1244.94
6748.85 1140.77
4235.64 903.049
3473.65 818.754
959.685 429.194
1149.38 469.244
0 0
0 0
0 0
0 0
0 0
0 0
0 0
0 0
0 0
0 0
0 0
0 0
0 0
0 0
0 0
0 0
0 0
0 0
0 0
0 0
0 0
0 0
0 0
0 0
0 0
0 0
0 0
0 0
0 0
0 0
0 0
0 0
0 0
0 0
0 0
0 0
0 0
0 0
0 0
0 0
0 0
0 0
0 0
0 0
2102.91 634.091
2289.82 661.065
4200.4 895.603
7272.87 1179.86
12555.6 1545.65
12813.5 1565.49
19213 1887.12
28267.8 2288.93
43768.2 2829.53
41341.4 2760.11
49013.9 2993.2
45658.6 2908.83
50837.7 3053.59
48813.4 3013.1
55155.3 3183.9
41173.2 2760.99
47469.1 2948.37
41685.9 2782.14
45607.8 2894.24
42389.6 2804.56
50686.6 3049.01
43574.2 2845.62
52163.2 3099.51
44979.2 2889.05
50523.2 3050.72
41267.8 2772.85
47315.3 2949.54
43722.7 2866.4
52797 3120.18
39627.5 2718.15
44682.2 2875.46
30824 2408.31
57155 3250.09
35660.5 2588.28
52085.4 3099.8
36073.6 2604.74
44237.2 2858.44
37605.4 2659.94
45194.1 2890.21
33279.9 2509.44
49622.4 3034.04
28524.8 2322.33
48552.2 2996.96
35812.8 2598.83
44119 2862.56
36762 2633.52
50631 3061.58
42003.4 2813.97
48086.3 2979.86
36933.5 2645.45
51209.2 3074.97
35360.7 2580.48
47310.4 2960.06
34624.9 2547.49
48181.1 2986.04
39910.5 2730.83
50586.4 3054.09
41752.1 2792.58
49504.9 3027.29
33206.4 2491.04
54861.4 3177.01
37081.8 2619.41
54749.9 3181.08
47411 2972.25
53794.7 3146.42
47510.5 2967.28
49784 3017.27
41350.9 2766.29
41410.5 2758.74
38811.7 2681.68
51641.5 3079.97
40464.3 2731.93
49431.7 3007.04
40260.8 2724.22
44740.3 2868.38
37323.2 2616.92
30597.4 2378.84
16106.1 1748.03
12580.2 1548.62
10333.6 1406.26
5517.36 1024.62
5375.47 1015.89
4198.28 895.133
2291.14 661.412
0 0
0 0
0 0
0 0
0 0
0 0
0 0
0 0
0 0
0 0
0 0
0 0
0 0
0 0
0 0
0 0
0 0
0 0
0 0
0 0
0 0
0 0
0 0
0 0
0 0
0 0
0 0
0 0
0 0
0 0
0 0
0 0
0 0
0 0
0 0
0 0
0 0
0 0
0 0
0 0
0 0
0 0
0 0
0 0
1512.01 534.729
4149.37 884.766
5445.67 1011.54
9578.61 1341.62
15376.4 1698.7
21539.7 2009.86
37672.1 2615.65
39753.3 2690.31
56674.8 3202.66
51460.2 3063.61
67444.6 3501.52
59938 3309.29
62759.5 3369.58
61220.5 3330.58
66521.3 3481.84
64648.9 3430.87
65512.5 3444.01
66407.8 3471.73
64714.9 3429.93
64609.8 3424.51
68801.7 3525.51
67113 3489.28
68088.2 3507.29
61670.7 3334.91
71708 3595.39
61859 3349.51
72628.2 3623.09
67888 3501.86
71154.9 3590.13
65119.4 3442.09
72285 3610.53
64858.3 3432.38
71886 3595.26
67134.7 3481.38
70644.4 3573
67947 3495.71
73445 3628.68
71276.7 3587.58
75263.9 3686.88
74877.1 3672.29
71176.2 3577.93
74716.4 3673.52
69556.6 3536.96
72241.7 3600.06
73732.9 3651.66
71720.2 3596.15
74995.9 3682.61
67231.9 3472.67
69461.1 3527.1
72132.6 3607.65
71994.8 3613.93
68180.8 3498.16
75463.2 3683.67
70220.9 3560.78
75800.9 3695.3
68064.1 3514.73
70283 3560.45
66702.6 3477.64
74446 3651.41
72745.1 3629.12
74292.3 3665.54
62449.9 3362.02
68770.8 3519.58
63457.7 3391.97
68510.9 3520.04
62892.3 3376.47
63418.4 3385.26
65495.2 3451.74
66796.4 3473.07
65329.9 3447.91
73199.8 3643.24
64967.8 3433.87
66727.6 3492.79
63735.1 3402.32
58543.4 3262.22
52202.8 3070.36
46155.3 2878.55
28145.4 2271.22
22990 2066.39
13180.8 1575.78
13442.1 1584.76
6075.91 1074.21
4725.44 945.216
3025.42 756.433
0 0
0 0
0 0
0 0
0 0
0 0
0 0
0 0
0 0
0 0
0 0
0 0
0 0
0 0
0 0
0 0
0 0
0 0
0 0
0 0
0 0
0 0
0 0
0 0
0 0
0 0
0 0
0 0
0 0
0 0
0 0
0 0
0 0
0 0
0 0
0 0
0 0
0 0
0 0
0 0
0 0
0 0
0 0
0 0
1324.13 500.522
3541.32 812.715
8951.8 1292.7
10307.5 1378.5
20113.3 1903.5
24473.7 2109.61
40130.4 2691.92
46771.4 2905.48
59501.7 3271.02
62806.7 3362.44
73959.7 3649.22
76933.3 3724.64
73313.5 3635.07
69586.3 3538.13
63654.3 3383.53
71238.1 3576.51
74727.5 3673.69
66097.4 3455.59
76417.2 3708.14
74831.1 3665.97
76029.7 3698.17
76226.7 3716.7
75462.3 3688.04
69269.9 3540.69
72305.3 3616.19
72269.9 3605.7
74884.8 3676.74
76948.1 3725.48
73740.9 3646.67
74448.4 3664.64
77836 3742.48
73037.6 3621.46
74353.6 3655.98
75927.8 3701.93
74739.6 3670.45
72177.5 3597.06
67139.4 3481.63
70944.7 3579.63
73353.2 3646.03
67339.4 3473.81
67152.5 3473.43
72733.1 3619.71
73216.7 3643.46
72420.6 3604.79
69880.4 3540.07
67261.9 3483.73
75126.2 3672.03
73784.1 3645.25
69786.5 3544.36
72636.3 3619.68
77349.2 3730.96
77301.8 3729.24
61338.7 3316.81
72699.4 3613.61
77737.2 3737.54
72701.7 3618.5
80829.1 3808.15
73772.3 3640.7
69365.7 3531.78
69908.8 3550.01
73538.2 3641.95
75539.2 3700.07
81249 3827.42
74047.2 3653.69
72638.2 3615.47
72216.1 3611.32
72424.1 3613.86
67306.3 3481.05
74808.8 3660.89
71727.7 3605.36
76811.2 3714.56
70146.6 3557.57
72085.8 3605.17
68021.8 3503.84
67708.2 3488.33
58491.8 3239.61
53876.7 3110.66
43830.1 2804.58
27089.3 2215.27
19147.6 1870.96
14237.8 1623.98
9679.34 1343.01
3357.95 791.732
1126.21 459.835
0 0
0 0
0 0
0 0
0 0
0 0
0 0
0 0
0 0
0 0
0 0
0 0
0 0
0 0
0 0
0 0
0 0
0 0
0 0
0 0
0 0
0 0
0 0
0 0
0 0
0 0
0 0
0 0
0 0
0 0
0 0
0 0
0 0
0 0
0 0
0 0
0 0
0 0
0 0
0 0
0 0
0 0
0 0
0 0
380.679 269.215
2252.41 650.367
11014.1 1423.14
15549.4 1688.66
21794.7 1992.85
26666.8 2195.65
42913.1 2774.83
49805.4 2992.36
62313.4 3340.8
71003.4 3578.08
78552.4 3758.75
76969.1 3721.99
70875.8 3571.7
70546.4 3568.84
73243.4 3627.64
71090.5 3581.86
76626.6 3713.7
72469.1 3620.14
73547.7 3642.29
74778.1 3663.58
66262.4 3450.75
72280 3615.36
72345.4 3600.71
72861.5 3621.91
69444.2 3535.71
65442 3426.05
78401.7 3760.46
72445.3 3609.71
74540.2 3669.09
79401.7 3782.47
76143.6 3695.15
77669.3 3729.67
78494.8 3768.87
70766 3575.39
75775.6 3690
68787.6 3516.16
74439.5 3655.81
77509.8 3731.27
75584.9 3689.34
68748.1 3523.15
73272.8 3632.67
69444.3 3545.16
67586.1 3486.48
66020.2 3465.49
75445.1 3682.46
71518.1 3577.32
67769.5 3491.23
76209 3698.41
71365.5 3578.33
71674.6 3593.38
72278.7 3601.84
73893.3 3650.65
73671 3648.49
77896.4 3745.06
66096.1 3456.1
72487.6 3612.09
71982.8 3604.67
67630.2 3489.12
78629.4 3762.6
77097.4 3723.85
66827.7 3466.14
74567.6 3669.86
74598.5 3667.69
71825.8 3597
72764.8 3621.34
69231.5 3529.61
73978.5 3650.84
72786.1 3613.41
76436.6 3713.57
71571.9 3584.77
69257.3 3530.86
72701.3 3622.54
73018.4 3629.51
74700.4 3668.07
71042.3 3571.24
60207.7 3280.63
47696.7 2929.68
45034.9 2841.8
30714.9 2352.77
20812 1943.6
13921.2 1598.77
7835.83 1195.91
2251.91 650.251
741.486 370.824
0 0
0 0
0 0
0 0
0 0
0 0
0 0
0 0
0 0
0 0
0 0
0 0
0 0
0 0
0 0
0 0
0 0
0 0
0 0
0 0
0 0
0 0
0 0
0 0
0 0
0 0
0 0
0 0
0 0
0 0
0 0
0 0
0 0
0 0
0 0
0 0
0 0
0 0
0 0
0 0
0 0
0 0
0 0
0 0
0 0
381.53 269.786
7741.87 1195.38
12380.7 1503.04
24364.5 2107.29
27986.2 2244.37
39687.8 2668.3
52116.2 3050.16
68450.6 3503.66
68449.9 3512.15
74262.4 3651.38
77782.9 3748.33
70900.2 3572.78
69966.7 3544.36
67039.5 3476.71
69860.1 3547.85
75868.1 3698.59
68383 3508.91
74081.1 3637.97
65023 3413.81
74391.3 3674.96
72276.5 3609.94
74851.6 3671.31
75408.2 3685.41
69009.5 3522.64
77325.2 3721.55
71801.8 3596.15
80505 3813.88
73761.2 3644.04
73827 3647.2
72317.9 3617.04
68641.4 3522.46
71259 3586.46
73001.5 3633.26
78219.3 3755.99
74531 3664.25
71119.3 3575.16
73394.5 3622.39
68428 3515.47
77049.7 3734.52
75402.1 3689.42
65209.9 3432.67
69118.8 3541.8
79050.5 3778.9
73579.8 3644.03
75040.4 3680.34
74850.6 3680.21
74119.6 3648.54
67557.1 3479.93
70269 3559.38
65082 3421.42
76058 3703.51
66116.1 3451.81
74124.6 3644.79
75341.2 3686.27
70262.7 3558.88
71871 3590.37
76263.6 3700.74
78527.3 3753.74
70346.7 3554.43
70851.1 3570.94
72672.7 3617.29
69774.4 3547.22
72397.6 3611.97
76679.9 3720.6
74208.2 3661.63
72457.9 3615.25
73032.4 3626.01
67584.4 3490.78
69354.7 3544.26
71370 3578.51
78013.2 3750.36
72182.2 3614.11
76894.9 3718.54
71679.9 3585.64
66133.1 3448.33
58505.4 3235.9
42273.2 2756.76
27481.1 2232.29
21691.2 1974.65
14123.1 1611.13
10885.3 1418.36
1893.34 598.849
381.392 269.689
0 0
0 0
0 0
0 0
0 0
0 0
0 0
0 0
0 0
0 0
0 0
0 0
0 0
0 0
0 0
0 0
0 0
0 0
0 0
0 0
0 0
0 0
0 0
0 0
0 0
0 0
0 0
0 0
0 0
0 0
0 0
0 0
0 0
0 0
0 0
0 0
0 0
0 0
0 0
0 0
0 0
0 0
0 0
0 0
0 0
187.317 187.317
6328.2 1086.26
13432.9 1573.57
18505.9 1826.58
26244.2 2175.77
48326.7 2945.92
51274.7 3032.02
65649.4 3432.23
67093.7 3471.05
66344.8 3450.03
70066.1 3557.8
75765.9 3689.82
72250 3609.04
64884.2 3420.42
72327.1 3600.13
68447.7 3507.67
72302.7 3603.35
72260.8 3614.29
70860.8 3566.91
80214.5 3808.21
75400.3 3693.48
76097.2 3705.74
77334.4 3717.64
71339.8 3581.53
75050 3680.68
75298.3 3688.53
71605.6 3590.64
71661.6 3593.3
73706 3632.38
75948.3 3694.34
71939 3598.24
65499.5 3438.23
67789.6 3501.79
75093.3 3678.81
73701.9 3636.62
66890.8 3469.03
71097.4 3578.18
75305.8 3688.53
72117.4 3607.3
68230.4 3514.29
70252.1 3562.87
75573 3693.29
70434.5 3562.98
71249.1 3577.49
74756.7 3666.58
73607.7 3640.89
70866.9 3575.86
71554.1 3588.03
73423.9 3648.72
70001.9 3554.36
73322.9 3631.07
70620.1 3568.31
71152.8 3572.31
76010.4 3705.76
76390.2 3715.47
71464.7 3592.58
69607.9 3539.37
76622.1 3714.2
67657.3 3490.21
70673.7 3570.25
62664.9 3359.97
78232.4 3753.04
80272.6 3803.08
70192.6 3555.45
73276.6 3628.72
73722.4 3646.82
72699.3 3609.66
77792.9 3736.02
67777.2 3496.28
72594.7 3622.11
76193.2 3709.88
72696.3 3622.23
70319.3 3561.85
69070.1 3525.79
65812.1 3436.09
52010.2 3043.93
45702.4 2861.54
27139.3 2219.02
23502.4 2056.94
11886 1475.91
7534.26 1177.8
374.055 264.523
377.659 267.12
0 0
0 0
0 0
0 0
0 0
0 0
0 0
0 0
0 0
0 0
0 0
0 0
0 0
0 0
0 0
0 0
0 0
0 0
0 0
0 0
0 0
0 0
0 0
0 0
0 0
0 0
0 0
0 0
0 0
0 0
0 0
0 0
0 0
0 0
0 0
0 0
0 0
0 0
0 0
0 0
0 0
0 0
0 0
0 0
0 0
0 0
5565.02 1016.69
10782.2 1405.16
21159 1959.22
22709.7 2018.67
46586 2883.39
57596.2 3199.93
67567 3471.81
68892 3520.3
71253.7 3586.74
75919.9 3692.92
72329.7 3600.31
72798.2 3618.91
69238.1 3520.53
74313.7 3653.97
73742.1 3651.52
77629.1 3727.87
72036.5 3607.56
72877.9 3627.27