# vtk DataFile Version 2.0
Radiative paths
ASCII
DATASET POLYDATA
POINTS 300 float
0.082816 1.139066 -0.017745
0.082816 -0.000359 -0.017745
-0.011457 1.500000 -0.017745
-0.004911 1.136483 -0.645755
-0.004911 -0.002942 -0.645755
-0.004911 1.500000 0.015289
-0.542377 1.150335 0.050052
-0.542377 0.010910 0.050052
-0.200865 1.097951 0.050052
-0.237323 1.135181 0.010584
-0.237323 -0.004244 0.010584
-0.026258 1.115462 0.010584
0.501046 1.143995 0.068152
0.501046 0.004570 0.068152
0.159534 1.091612 0.068152
-0.057597 1.128856 -0.609470
-0.057597 -0.010569 -0.609470
-0.057597 1.032428 -0.150725
-0.043592 1.137835 -0.050371
-0.043592 -0.001590 -0.050371
0.027861 1.135592 -0.050371
-0.116342 1.140118 -0.029733
-0.116342 0.000693 -0.029733
-0.044889 1.137876 -0.029733
0.734556 1.155149 0.005769
0.734556 0.015724 0.005769
0.275812 1.058721 0.005769
0.748280 1.158034 -0.011643
0.748280 0.018609 -0.011643
0.289536 1.061606 -0.011643
0.044942 1.137877 -0.061589
0.044942 -0.001548 -0.061589
-0.026511 1.135635 -0.061589
0.551994 1.151810 0.032358
0.551994 0.012385 0.032358
0.210482 1.099427 0.032358
-0.048796 1.137998 0.013558
-0.048796 -0.001427 0.013558
0.022657 1.135756 0.013558
-0.316464 1.142575 -0.029175
-0.316464 0.003150 -0.029175
-0.105400 1.122856 -0.029175
-0.048963 1.138004 0.054114
-0.048963 -0.001421 0.054114
0.022490 1.135761 0.054114
0.052414 1.131091 -0.620104
0.052414 -0.008334 -0.620104
0.052414 1.034663 -0.161359
-0.463613 1.138254 -0.013650
-0.463613 -0.001171 -0.013650
0.008005 1.500000 -0.013650
0.417297 1.131149 0.006923
0.417297 -0.008276 0.006923
0.075785 1.078766 0.006923
-0.056272 1.128092 -0.605836
-0.056272 -0.011333 -0.605836
-0.056272 1.031664 -0.147092
-0.476458 1.140224 -0.018275
-0.476458 0.000799 -0.018275
-0.005459 1.500000 -0.018275
0.099637 1.139594 -0.007238
0.099637 0.000169 -0.007238
0.005397 1.500000 -0.007238
0.730090 1.154210 -0.039201
0.730090 0.014785 -0.039201
0.271345 1.057782 -0.039201
-0.134895 1.140701 -0.040085
-0.134895 0.001276 -0.040085
-0.063442 1.138458 -0.040085
0.137121 1.140771 0.046941
0.137121 0.001346 0.046941
0.065668 1.138528 0.046941
0.130481 1.140562 -0.058785
0.130481 0.001137 -0.058785
0.059028 1.138320 -0.058785
0.199363 1.131634 -0.019040
0.199363 -0.007791 -0.019040
-0.011702 1.111915 -0.019040
-0.407975 1.129719 -0.019100
-0.407975 -0.009706 -0.019100
-0.066463 1.077336 -0.019100
0.737846 1.155841 0.054742
0.737846 0.016416 0.054742
0.279101 1.059413 0.054742
0.067244 1.138577 0.025561
0.067244 -0.000848 0.025561
-0.004209 1.136335 0.025561
0.012393 1.137772 -0.651884
0.012393 -0.001653 -0.651884
0.012393 1.500000 0.008593
0.045620 1.138002 -0.652978
0.045620 -0.001423 -0.652978
0.045620 1.041573 -0.194234
0.056080 1.129170 -0.610965
0.056080 -0.010255 -0.610965
0.056080 1.032742 -0.152220
0.375281 1.148070 0.024777
0.375281 0.008645 0.024777
0.164217 1.128351 0.024777
0.334014 1.144214 0.058608
0.334014 0.004789 0.058608
0.122949 1.124495 0.058608
0.434392 1.133771 0.050576
0.434392 -0.005654 0.050576
0.092879 1.081388 0.050576
-0.023120 1.137193 0.036550
-0.023120 -0.002232 0.036550
0.048333 1.134950 0.036550
-0.054312 1.133005 -0.629210
-0.054312 -0.006420 -0.629210
-0.054312 1.036577 -0.170465
0.735085 1.155260 0.056177
0.735085 0.015835 0.056177
0.276340 1.058832 0.056177
-0.510208 1.145401 -0.061686
-0.510208 0.005976 -0.061686
-0.168696 1.093017 -0.061686
-0.508664 1.145164 0.061903
-0.508664 0.005739 0.061903
-0.167152 1.092780 0.061903
0.259234 1.137228 0.027413
0.259234 -0.002197 0.027413
0.048169 1.117509 0.027413
0.263630 1.137639 -0.011783
0.263630 -0.001786 -0.011783
-0.019457 1.500000 -0.011783
-0.440943 1.134776 0.002028
-0.440943 -0.004649 0.002028
-0.099431 1.082393 0.002028
-0.513409 1.145892 -0.039185
-0.513409 0.006467 -0.039185
-0.171896 1.093508 -0.039185
0.312595 1.142213 -0.006994
0.312595 0.002788 -0.006994
0.101531 1.122494 -0.006994
0.014274 1.132554 -0.627063
0.014274 -0.006871 -0.627063
0.014274 1.036126 -0.168318
0.081143 1.137623 -0.651177
0.081143 -0.001802 -0.651177
0.081143 1.041195 -0.192432
0.460413 1.137763 -0.049194
0.460413 -0.001662 -0.049194
0.118901 1.085379 -0.049194
-0.041827 1.136764 -0.647092
-0.041827 -0.002661 -0.647092
-0.041827 1.040336 -0.188347
-0.349393 1.145651 -0.042995
-0.349393 0.006226 -0.042995
-0.138329 1.125932 -0.042995
0.255588 1.136887 -0.053160
0.255588 -0.002538 -0.053160
0.044523 1.117168 -0.053160
-0.061499 1.138397 -0.018740
-0.061499 -0.001028 -0.018740
0.009954 1.136154 -0.018740
0.485249 1.141572 -0.041196
0.485249 0.002147 -0.041196
0.143737 1.089189 -0.041196
0.138594 1.140817 -0.000133
0.138594 0.001392 -0.000133
0.067141 1.138574 -0.000133
0.585845 1.123890 0.010768
0.585845 -0.015535 0.010768
0.127100 1.027462 0.010768
0.011799 1.136837 0.038086
0.011799 -0.002588 0.038086
-0.059654 1.134595 0.038086
-0.263770 1.137652 0.021004
-0.263770 -0.001773 0.021004
-0.052706 1.117933 0.021004
-0.392146 1.127291 -0.041907
-0.392146 -0.012134 -0.041907
-0.050634 1.074908 -0.041907
0.056979 1.138255 -0.059566
0.056979 -0.001170 -0.059566
-0.014474 1.136013 -0.059566
0.536767 1.149474 0.064470
0.536767 0.010049 0.064470
0.195255 1.097091 0.064470
-0.386908 1.126488 -0.022794
-0.386908 -0.012937 -0.022794
-0.045395 1.074104 -0.022794
-0.066371 1.148369 -0.702301
-0.066371 0.008944 -0.702301
-0.066371 1.051941 -0.243556
0.355457 1.146218 -0.032760
0.355457 0.006793 -0.032760
0.144392 1.126499 -0.032760
0.040087 1.129664 -0.613311
0.040087 -0.009761 -0.613311
0.040087 1.033235 -0.154566
-0.468283 1.138970 0.010707
-0.468283 -0.000455 0.010707
0.003110 1.500000 0.010707
0.726655 1.153488 0.057248
0.726655 0.014063 0.057248
0.267910 1.057060 0.057248
0.103461 1.139714 -0.057752
0.103461 0.000289 -0.057752
0.032008 1.137471 -0.057752
-0.356541 1.146319 -0.012795
-0.356541 0.006894 -0.012795
-0.145477 1.126600 -0.012795
-0.494724 1.143026 0.008532
-0.494724 0.003601 0.008532
-0.153212 1.090642 0.008532
0.046949 1.132240 -0.625567
0.046949 -0.007185 -0.625567
0.046949 1.035812 -0.166823
-0.107520 1.139841 -0.059201
-0.107520 0.000416 -0.059201
-0.036067 1.137599 -0.059201
0.394171 1.127602 0.047003
0.394171 -0.011823 0.047003
0.052658 1.075218 0.047003
-0.042340 1.137796 -0.024820
-0.042340 -0.001629 -0.024820
0.029113 1.135553 -0.024820
0.705792 1.149103 0.032041
0.705792 0.009678 0.032041
0.247047 1.052675 0.032041
0.679332 1.143541 -0.035460
0.679332 0.004116 -0.035460
0.220587 1.047113 -0.035460
0.127419 1.140466 0.024724
0.127419 0.001041 0.024724
0.055966 1.138223 0.024724
-0.452121 1.136491 -0.052505
-0.452121 -0.002934 -0.052505
-0.110608 1.084107 -0.052505
0.476929 1.140296 -0.005264
0.476929 0.000871 -0.005264
0.005953 1.500000 -0.005264
0.595767 1.125976 0.066188
0.595767 -0.013449 0.066188
0.137022 1.029548 0.066188
-0.325377 1.143408 0.063478
-0.325377 0.003983 0.063478
-0.114313 1.123688 0.063478
0.409636 1.129974 -0.033438
0.409636 -0.009451 -0.033438
0.068123 1.077590 -0.033438
-0.223889 1.133926 0.005677
-0.223889 -0.005499 0.005677
-0.012825 1.114207 0.005677
0.014699 1.136928 0.026485
0.014699 -0.002497 0.026485
-0.056754 1.134686 0.026485
0.342917 1.145046 -0.041508
0.342917 0.005621 -0.041508
0.131852 1.125327 -0.041508
-0.026230 1.137290 -0.036748
-0.026230 -0.002135 -0.036748
0.045223 1.135048 -0.036748
0.690016 1.145787 -0.016665
0.690016 0.006362 -0.016665
0.231271 1.049359 -0.016665
0.369718 1.147550 0.010825
0.369718 0.008125 0.010825
0.158654 1.127831 0.010825
0.085831 1.139161 0.040745
0.085831 -0.000264 0.040745
0.014378 1.136918 0.040745
0.639389 1.135145 -0.042512
0.639389 -0.004280 -0.042512
0.180644 1.038717 -0.042512
0.233504 1.134824 -0.032521
0.233504 -0.004601 -0.032521
0.022439 1.115105 -0.032521
0.713871 1.150801 -0.050196
0.713871 0.011376 -0.050196
0.255127 1.054373 -0.050196
-0.389174 1.126836 -0.014824
-0.389174 -0.012589 -0.014824
-0.047662 1.074452 -0.014824
0.676503 1.142946 -0.024153
0.676503 0.003521 -0.024153
0.217758 1.046518 -0.024153
0.145484 1.141033 -0.032048
0.145484 0.001608 -0.032048
0.074031 1.138790 -0.032048
-0.448426 1.135924 0.004425
-0.448426 -0.003501 0.004425
-0.106914 1.083540 0.004425
0.310723 1.142038 -0.001419
0.310723 0.002613 -0.001419
0.099658 1.122319 -0.001419
0.182547 1.142196 0.017661
0.182547 0.002771 0.017661
0.111094 1.139954 0.017661
0.010686 1.144217 -0.682549
0.010686 0.004792 -0.682549
0.010686 1.047789 -0.223804
0.480830 1.140894 -0.014142
0.480830 0.001469 -0.014142
0.010042 1.500000 -0.014142
-0.407988 1.129721 -0.006139
-0.407988 -0.009704 -0.006139
-0.066476 1.077338 -0.006139
LINES 100 400
3 0 1 2
3 3 4 5
3 6 7 8
3 9 10 11
3 12 13 14
3 15 16 17
3 18 19 20
3 21 22 23
3 24 25 26
3 27 28 29
3 30 31 32
3 33 34 35
3 36 37 38
3 39 40 41
3 42 43 44
3 45 46 47
3 48 49 50
3 51 52 53
3 54 55 56
3 57 58 59
3 60 61 62
3 63 64 65
3 66 67 68
3 69 70 71
3 72 73 74
3 75 76 77
3 78 79 80
3 81 82 83
3 84 85 86
3 87 88 89
3 90 91 92
3 93 94 95
3 96 97 98
3 99 100 101
3 102 103 104
3 105 106 107
3 108 109 110
3 111 112 113
3 114 115 116
3 117 118 119
3 120 121 122
3 123 124 125
3 126 127 128
3 129 130 131
3 132 133 134
3 135 136 137
3 138 139 140
3 141 142 143
3 144 145 146
3 147 148 149
3 150 151 152
3 153 154 155
3 156 157 158
3 159 160 161
3 162 163 164
3 165 166 167
3 168 169 170
3 171 172 173
3 174 175 176
3 177 178 179
3 180 181 182
3 183 184 185
3 186 187 188
3 189 190 191
3 192 193 194
3 195 196 197
3 198 199 200
3 201 202 203
3 204 205 206
3 207 208 209
3 210 211 212
3 213 214 215
3 216 217 218
3 219 220 221
3 222 223 224
3 225 226 227
3 228 229 230
3 231 232 233
3 234 235 236
3 237 238 239
3 240 241 242
3 243 244 245
3 246 247 248
3 249 250 251
3 252 253 254
3 255 256 257
3 258 259 260
3 261 262 263
3 264 265 266
3 267 268 269
3 270 271 272
3 273 274 275
3 276 277 278
3 279 280 281
3 282 283 284
3 285 286 287
3 288 289 290
3 291 292 293
3 294 295 296
3 297 298 299
CELL_DATA 100
SCALARS Radiative_path_type float 1
LOOKUP_TABLE path_type
0.5
0.5
0.75
0.75
0.75
0.75
0.75
0.75
0.75
0.75
0.75
0.75
0.75
0.75
0.75
0.75
0.5
0.75
0.75
0.5
0.5
0.75
0.75
0.75
0.75
0.75
0.75
0.75
0.75
0.5
0.75
0.75
0.75
0.75
0.75
0.75
0.75
0.75
0.75
0.75
0.75
0.5
0.75
0.75
0.75
0.75
0.75
0.75
0.75
0.75
0.75
0.75
0.75
0.75
0.75
0.75
0.75
0.75
0.75
0.75
0.75
0.75
0.75
0.75
0.5
0.75
0.75
0.75
0.75
0.75
0.75
0.75
0.75
0.75
0.75
0.75
0.75
0.5
0.75
0.75
0.75
0.75
0.75
0.75
0.75
0.75
0.75
0.75
0.75
0.75
0.75
0.75
0.75
0.75
0.75
0.75
0.75
0.75
0.5
0.75
LOOKUP_TABLE path_type 5
1.0 0.0 0.0 1.0
0.0 1.0 0.0 1.0
0.0 0.0 1.0 1.0
0.0 1.0 1.0 1.0
1.0 1.0 0.0 1.0
