# vtk DataFile Version 2.0
Radiative paths
ASCII
DATASET POLYDATA
POINTS 297 float
0.082568 0.822821 0.800060
0.082568 0.006369 -0.016393
-0.011282 1.500000 -0.016393
-0.004911 0.808379 0.168507
-0.004911 -0.008073 -0.647946
-0.004911 1.500000 0.015355
-0.071959 0.790509 0.388007
-0.071959 -0.025944 -0.428446
-0.071959 1.075612 -0.082374
0.045625 0.811511 0.543062
0.045625 -0.004942 -0.273391
0.045625 1.129714 -0.059508
0.505592 0.795891 0.879312
0.505592 -0.020561 0.062859
0.159520 1.080994 0.062859
-0.057597 0.787447 0.199111
-0.057597 -0.029006 -0.617342
-0.057597 1.027917 -0.152472
0.050683 0.837179 0.676293
0.050683 0.020727 -0.140159
0.050683 1.173093 -0.067752
-0.022103 0.828687 0.695103
-0.022103 0.012235 -0.121349
-0.022103 1.164601 -0.048942
0.734482 0.832682 0.821766
0.734482 0.016229 0.005314
0.269612 1.073152 0.005314
0.746460 0.842643 0.805730
0.746460 0.026190 -0.010723
0.281590 1.083113 -0.010723
0.044085 0.838203 0.759556
0.044085 0.021750 -0.056897
-0.028322 1.174116 -0.056897
0.553861 0.818654 0.846298
0.553861 0.002201 0.029845
0.207789 1.103757 0.029845
0.045477 0.810874 0.734560
0.045477 -0.005579 -0.081893
-0.033861 0.830077 0.507904
-0.033861 0.013624 -0.308549
-0.033861 1.148280 -0.094666
0.045310 0.794186 0.771523
0.045310 -0.022267 -0.044930
0.052414 0.793582 0.190142
0.052414 -0.022871 -0.626311
0.052414 1.034052 -0.161441
0.007726 0.823528 0.333530
0.007726 0.007075 -0.482923
0.007726 1.500000 -0.013896
0.418009 0.804128 0.822838
0.418009 -0.012325 0.006386
0.071937 1.089231 0.006386
-0.056272 0.785351 0.202176
-0.056272 -0.031102 -0.614277
-0.056272 1.025821 -0.149407
-0.005269 0.825926 0.329574
-0.005269 0.009473 -0.486879
-0.005269 1.500000 -0.018605
0.099534 0.819420 0.809766
0.099534 0.002967 -0.006687
0.005470 1.500000 -0.006687
0.725833 0.848586 0.780349
0.725833 0.032133 -0.036104
0.260963 1.089056 -0.036104
-0.040665 0.832947 0.685668
-0.040665 0.016494 -0.130785
-0.040665 1.168860 -0.058378
0.137774 0.800070 0.859818
0.137774 -0.016383 0.043365
0.065367 1.135984 0.043365
0.129647 0.840275 0.762146
0.129647 0.023822 -0.054306
0.057240 1.176188 -0.054306
0.198702 0.814596 0.798874
0.198702 -0.001857 -0.017579
-0.015181 1.132799 -0.017579
0.064015 0.826353 0.328869
0.064015 0.009900 -0.487584
0.064015 1.111456 -0.141512
0.742340 0.814975 0.866870
0.742340 -0.001478 0.050417
0.277470 1.055445 0.050417
0.067608 0.805681 0.840066
0.067608 -0.010772 0.023613
-0.004799 1.141594 0.023613
0.012393 0.811915 0.163337
0.012393 -0.004537 -0.653116
0.012393 1.500000 0.008630
0.045620 0.812546 0.162414
0.045620 -0.003906 -0.654039
0.045620 1.053017 -0.189169
0.056080 0.788310 0.197850
0.056080 -0.028143 -0.618603
0.056080 1.028780 -0.153733
0.376168 0.817120 0.839330
0.376168 0.000668 0.022877
0.162285 1.135324 0.022877
0.336383 0.799688 0.870566
0.336383 -0.016765 0.054113
0.122500 1.117891 0.054113
0.438023 0.790600 0.863101
0.438023 -0.025852 0.046648
0.091951 1.075703 0.046648
0.071165 0.801413 0.755515
0.071165 -0.015039 -0.060938
-0.054312 0.798835 0.182462
-0.054312 -0.017618 -0.633991
-0.054312 1.039305 -0.169121
0.739736 0.813752 0.868192
0.739736 -0.002701 0.051739
0.274866 1.054222 0.051739
-0.039414 0.848427 0.292450
-0.039414 0.031974 -0.524003
-0.039414 1.133530 -0.177931
-0.037852 0.784367 0.398141
-0.037852 -0.032086 -0.418312
-0.037852 1.069469 -0.072240
0.260419 0.803414 0.841764
0.260419 -0.013039 0.025311
0.046537 1.121617 0.025311
0.263168 0.818859 0.805574
0.263168 0.002406 -0.010879
-0.019129 1.500000 -0.010879
0.030661 0.815402 0.346937
0.030661 -0.001051 -0.469516
0.030661 1.100504 -0.123444
-0.042652 0.836764 0.311693
-0.042652 0.020311 -0.504760
-0.042652 1.121866 -0.158688
0.312254 0.822389 0.809995
0.312254 0.005936 -0.006457
0.098371 1.140593 -0.006457
0.014274 0.797596 0.184272
0.014274 -0.018857 -0.632180
0.014274 1.038066 -0.167310
0.081143 0.811507 0.163934
0.081143 -0.004946 -0.652519
0.081143 1.051977 -0.187649
0.457086 0.833212 0.771079
0.457086 0.016759 -0.045374
0.111014 1.118314 -0.045374
-0.041827 0.809150 0.167379
-0.041827 -0.007302 -0.649073
-0.041827 1.049621 -0.184203
-0.066933 0.836530 0.495683
-0.066933 0.020077 -0.320769
-0.066933 1.154733 -0.106887
0.253407 0.833775 0.767370
0.253407 0.017322 -0.049083
0.039524 1.151979 -0.049083
0.032767 0.824164 0.705123
0.032767 0.007711 -0.111330
0.032767 1.160077 -0.038923
0.482361 0.834632 0.778456
0.482361 0.018179 -0.037997
0.136289 1.119735 -0.037997
0.138584 0.818134 0.816330
0.138584 0.001681 -0.000123
0.066177 1.154047 -0.000123
0.587463 0.794193 0.826370
0.587463 -0.022260 0.009917
0.122593 1.034663 0.009917
0.012350 0.798850 0.851637
0.012350 -0.017603 0.035184
-0.060057 1.134763 0.035184
0.019062 0.806645 0.552276
0.019062 -0.009808 -0.264177
0.019062 1.124848 -0.050294
0.080029 0.838174 0.309365
0.080029 0.021722 -0.507088
0.080029 1.123277 -0.161016
0.056147 0.837871 0.761425
0.056147 0.021418 -0.055028
-0.016260 1.173784 -0.055028
0.540903 0.803708 0.875916
0.540903 -0.012744 0.059463
0.194831 1.088811 0.059463
0.085329 0.828268 0.325710
0.085329 0.011815 -0.490743
0.085329 1.113370 -0.144671
-0.066371 0.841000 0.120814
-0.066371 0.024547 -0.695639
-0.066371 1.081470 -0.230769
0.353968 0.836917 0.786205
0.353968 0.020464 -0.030248
0.140085 1.155120 -0.030248
0.040087 0.789663 0.195871
0.040087 -0.026790 -0.620582
0.040087 1.030133 -0.155712
0.003001 0.810903 0.354359
0.003001 -0.005550 -0.462094
0.003001 1.500000 0.010900
0.731476 0.811273 0.869178
0.731476 -0.005180 0.052726
0.266606 1.051743 0.052726
0.102647 0.838886 0.763101
0.102647 0.022434 -0.053352
0.030240 1.174800 -0.053352
-0.074113 0.822428 0.522388
-0.074113 0.005975 -0.294064
-0.074113 1.140631 -0.080182
-0.023748 0.812030 0.352499
-0.023748 -0.004423 -0.463953
-0.023748 1.097133 -0.117881
0.046949 0.796733 0.185534
0.046949 -0.019719 -0.630919
0.046949 1.037204 -0.166049
-0.013276 0.840813 0.668245
-0.013276 0.024360 -0.148207
-0.013276 1.176726 -0.075800
0.397733 0.784734 0.859806
0.397733 -0.031719 0.043353
0.051661 1.069836 0.043353
0.051936 0.826666 0.699581
0.051936 0.010213 -0.116871
0.051936 1.162579 -0.044464
0.708419 0.815669 0.845963
0.708419 -0.000784 0.029510
0.243549 1.056139 0.029510
0.675844 0.834680 0.783794
0.675844 0.018227 -0.032659
0.210974 1.075150 -0.032659
0.127760 0.808214 0.839293
0.127760 -0.008239 0.022840
0.055353 1.144127 0.022840
0.019353 0.843668 0.300302
0.019353 0.027215 -0.516151
0.019353 1.128770 -0.170079
0.476543 0.819474 0.811598
0.476543 0.003022 -0.004855
0.006242 1.500000 -0.004855
0.602503 0.775680 0.877411
0.602503 -0.040772 0.060958
0.137633 1.016151 0.060958
-0.042813 0.786811 0.589835
-0.042813 -0.029642 -0.226618
-0.042813 1.105014 -0.012736
0.407611 0.818099 0.785612
0.407611 0.001646 -0.030841
0.061539 1.103201 -0.030841
0.059117 0.813802 0.538722
0.059117 -0.002651 -0.277730
0.059117 1.132005 -0.063848
0.015086 0.803395 0.840921
0.015086 -0.013058 0.024468
-0.057321 1.139308 0.024468
0.341082 0.838884 0.778128
0.341082 0.022431 -0.038324
0.127199 1.157088 -0.038324
0.068053 0.831574 0.688710
0.068053 0.015121 -0.127743
0.068053 1.167487 -0.055336
0.688204 0.830202 0.801105
0.688204 0.013750 -0.015348
0.223334 1.070673 -0.015348
0.370030 0.821838 0.826447
0.370030 0.005385 0.009995
0.156147 1.140042 0.009995
0.086406 0.800555 0.854093
0.086406 -0.015898 0.037641
0.013999 1.136468 0.037641
0.635568 0.827516 0.777300
0.635568 0.011063 -0.039153
0.170698 1.067986 -0.039153
0.232223 0.823479 0.786426
0.232223 0.007026 -0.030026
0.018340 1.141682 -0.030026
0.708717 0.848752 0.770223
0.708717 0.032299 -0.046230
0.243847 1.089222 -0.046230
0.083035 0.824137 0.332525
0.083035 0.007684 -0.483927
0.083035 1.109239 -0.137855
0.674099 0.829708 0.794208
0.674099 0.013255 -0.022245
0.209229 1.070178 -0.022245
0.145023 0.830598 0.786846
0.145023 0.014145 -0.029606
0.072616 1.166511 -0.029606
0.023091 0.814159 0.348987
0.023091 -0.002294 -0.467466
0.023091 1.099262 -0.121394
0.310618 0.820056 0.815143
0.310618 0.003603 -0.001310
0.096735 1.138259 -0.001310
0.182779 0.812943 0.832768
0.182779 -0.003510 0.016315
0.110372 1.148856 0.016315
0.010686 0.829605 0.137473
0.010686 0.013153 -0.678980
0.010686 1.070076 -0.214110
0.479818 0.823551 0.803409
0.479818 0.007098 -0.013044
0.010798 1.500000 -0.013044
0.064002 0.819635 0.339953
0.064002 0.003182 -0.476500
0.064002 1.104738 -0.130428
LINES 100 397
3 0 1 2
3 3 4 5
3 6 7 8
3 9 10 11
3 12 13 14
3 15 16 17
3 18 19 20
3 21 22 23
3 24 25 26
3 27 28 29
3 30 31 32
3 33 34 35
2 36 37
3 38 39 40
2 41 42
3 43 44 45
3 46 47 48
3 49 50 51
3 52 53 54
3 55 56 57
3 58 59 60
3 61 62 63
3 64 65 66
3 67 68 69
3 70 71 72
3 73 74 75
3 76 77 78
3 79 80 81
3 82 83 84
3 85 86 87
3 88 89 90
3 91 92 93
3 94 95 96
3 97 98 99
3 100 101 102
2 103 104
3 105 106 107
3 108 109 110
3 111 112 113
3 114 115 116
3 117 118 119
3 120 121 122
3 123 124 125
3 126 127 128
3 129 130 131
3 132 133 134
3 135 136 137
3 138 139 140
3 141 142 143
3 144 145 146
3 147 148 149
3 150 151 152
3 153 154 155
3 156 157 158
3 159 160 161
3 162 163 164
3 165 166 167
3 168 169 170
3 171 172 173
3 174 175 176
3 177 178 179
3 180 181 182
3 183 184 185
3 186 187 188
3 189 190 191
3 192 193 194
3 195 196 197
3 198 199 200
3 201 202 203
3 204 205 206
3 207 208 209
3 210 211 212
3 213 214 215
3 216 217 218
3 219 220 221
3 222 223 224
3 225 226 227
3 228 229 230
3 231 232 233
3 234 235 236
3 237 238 239
3 240 241 242
3 243 244 245
3 246 247 248
3 249 250 251
3 252 253 254
3 255 256 257
3 258 259 260
3 261 262 263
3 264 265 266
3 267 268 269
3 270 271 272
3 273 274 275
3 276 277 278
3 279 280 281
3 282 283 284
3 285 286 287
3 288 289 290
3 291 292 293
3 294 295 296
CELL_DATA 100
SCALARS Radiative_path_type float 1
LOOKUP_TABLE path_type
0.5
0.5
0.75
0.75
0.75
0.75
0.75
0.75
0.75
0.75
0.75
0.75
1.0
0.75
1.0
0.75
0.5
0.75
0.75
0.5
0.5
0.75
0.75
0.75
0.75
0.75
0.75
0.75
0.75
0.5
0.75
0.75
0.75
0.75
0.75
1.0
0.75
0.75
0.75
0.75
0.75
0.5
0.75
0.75
0.75
0.75
0.75
0.75
0.75
0.75
0.75
0.75
0.75
0.75
0.75
0.75
0.75
0.75
0.75
0.75
0.75
0.75
0.75
0.75
0.5
0.75
0.75
0.75
0.75
0.75
0.75
0.75
0.75
0.75
0.75
0.75
0.75
0.5
0.75
0.75
0.75
0.75
0.75
0.75
0.75
0.75
0.75
0.75
0.75
0.75
0.75
0.75
0.75
0.75
0.75
0.75
0.75
0.75
0.5
0.75
LOOKUP_TABLE path_type 5
1.0 0.0 0.0 1.0
0.0 1.0 0.0 1.0
0.0 0.0 1.0 1.0
0.0 1.0 1.0 1.0
1.0 1.0 0.0 1.0
