# vtk DataFile Version 2.0
absorber
ASCII
DATASET POLYDATA
POINTS 4225 float
-0.121094 1.500000 -0.121094
-0.125000 1.500000 -0.125000
-0.121094 1.500000 -0.125000
-0.125000 1.500000 -0.121094
-0.121094 1.500000 -0.117188
-0.125000 1.500000 -0.117188
-0.121094 1.500000 -0.113281
-0.125000 1.500000 -0.113281
-0.121094 1.500000 -0.109375
-0.125000 1.500000 -0.109375
-0.121094 1.500000 -0.105469
-0.125000 1.500000 -0.105469
-0.121094 1.500000 -0.101562
-0.125000 1.500000 -0.101562
-0.121094 1.500000 -0.097656
-0.125000 1.500000 -0.097656
-0.121094 1.500000 -0.093750
-0.125000 1.500000 -0.093750
-0.121094 1.500000 -0.089844
-0.125000 1.500000 -0.089844
-0.121094 1.500000 -0.085938
-0.125000 1.500000 -0.085938
-0.121094 1.500000 -0.082031
-0.125000 1.500000 -0.082031
-0.121094 1.500000 -0.078125
-0.125000 1.500000 -0.078125
-0.121094 1.500000 -0.074219
-0.125000 1.500000 -0.074219
-0.121094 1.500000 -0.070312
-0.125000 1.500000 -0.070312
-0.121094 1.500000 -0.066406
-0.125000 1.500000 -0.066406
-0.121094 1.500000 -0.062500
-0.125000 1.500000 -0.062500
-0.121094 1.500000 -0.058594
-0.125000 1.500000 -0.058594
-0.121094 1.500000 -0.054688
-0.125000 1.500000 -0.054688
-0.121094 1.500000 -0.050781
-0.125000 1.500000 -0.050781
-0.121094 1.500000 -0.046875
-0.125000 1.500000 -0.046875
-0.121094 1.500000 -0.042969
-0.125000 1.500000 -0.042969
-0.121094 1.500000 -0.039062
-0.125000 1.500000 -0.039062
-0.121094 1.500000 -0.035156
-0.125000 1.500000 -0.035156
-0.121094 1.500000 -0.031250
-0.125000 1.500000 -0.031250
-0.121094 1.500000 -0.027344
-0.125000 1.500000 -0.027344
-0.121094 1.500000 -0.023438
-0.125000 1.500000 -0.023438
-0.121094 1.500000 -0.019531
-0.125000 1.500000 -0.019531
-0.121094 1.500000 -0.015625
-0.125000 1.500000 -0.015625
-0.121094 1.500000 -0.011719
-0.125000 1.500000 -0.011719
-0.121094 1.500000 -0.007812
-0.125000 1.500000 -0.007812
-0.121094 1.500000 -0.003906
-0.125000 1.500000 -0.003906
-0.121094 1.500000 0.000000
-0.125000 1.500000 0.000000
-0.121094 1.500000 0.003906
-0.125000 1.500000 0.003906
-0.121094 1.500000 0.007812
-0.125000 1.500000 0.007812
-0.121094 1.500000 0.011719
-0.125000 1.500000 0.011719
-0.121094 1.500000 0.015625
-0.125000 1.500000 0.015625
-0.121094 1.500000 0.019531
-0.125000 1.500000 0.019531
-0.121094 1.500000 0.023438
-0.125000 1.500000 0.023438
-0.121094 1.500000 0.027344
-0.125000 1.500000 0.027344
-0.121094 1.500000 0.031250
-0.125000 1.500000 0.031250
-0.121094 1.500000 0.035156
-0.125000 1.500000 0.035156
-0.121094 1.500000 0.039062
-0.125000 1.500000 0.039062
-0.121094 1.500000 0.042969
-0.125000 1.500000 0.042969
-0.121094 1.500000 0.046875
-0.125000 1.500000 0.046875
-0.121094 1.500000 0.050781
-0.125000 1.500000 0.050781
-0.121094 1.500000 0.054688
-0.125000 1.500000 0.054688
-0.121094 1.500000 0.058594
-0.125000 1.500000 0.058594
-0.121094 1.500000 0.062500
-0.125000 1.500000 0.062500
-0.121094 1.500000 0.066406
-0.125000 1.500000 0.066406
-0.121094 1.500000 0.070312
-0.125000 1.500000 0.070312
-0.121094 1.500000 0.074219
-0.125000 1.500000 0.074219
-0.121094 1.500000 0.078125
-0.125000 1.500000 0.078125
-0.121094 1.500000 0.082031
-0.125000 1.500000 0.082031
-0.121094 1.500000 0.085938
-0.125000 1.500000 0.085938
-0.121094 1.500000 0.089844
-0.125000 1.500000 0.089844
-0.121094 1.500000 0.093750
-0.125000 1.500000 0.093750
-0.121094 1.500000 0.097656
-0.125000 1.500000 0.097656
-0.121094 1.500000 0.101562
-0.125000 1.500000 0.101562
-0.121094 1.500000 0.105469
-0.125000 1.500000 0.105469
-0.121094 1.500000 0.109375
-0.125000 1.500000 0.109375
-0.121094 1.500000 0.113281
-0.125000 1.500000 0.113281
-0.121094 1.500000 0.117188
-0.125000 1.500000 0.117188
-0.121094 1.500000 0.121094
-0.125000 1.500000 0.121094
-0.121094 1.500000 0.125000
-0.125000 1.500000 0.125000
-0.117188 1.500000 -0.121094
-0.117188 1.500000 -0.125000
-0.117188 1.500000 -0.117188
-0.117188 1.500000 -0.113281
-0.117188 1.500000 -0.109375
-0.117188 1.500000 -0.105469
-0.117188 1.500000 -0.101562
-0.117188 1.500000 -0.097656
-0.117188 1.500000 -0.093750
-0.117188 1.500000 -0.089844
-0.117188 1.500000 -0.085938
-0.117188 1.500000 -0.082031
-0.117188 1.500000 -0.078125
-0.117188 1.500000 -0.074219
-0.117188 1.500000 -0.070312
-0.117188 1.500000 -0.066406
-0.117188 1.500000 -0.062500
-0.117188 1.500000 -0.058594
-0.117188 1.500000 -0.054688
-0.117188 1.500000 -0.050781
-0.117188 1.500000 -0.046875
-0.117188 1.500000 -0.042969
-0.117188 1.500000 -0.039062
-0.117188 1.500000 -0.035156
-0.117188 1.500000 -0.031250
-0.117188 1.500000 -0.027344
-0.117188 1.500000 -0.023438
-0.117188 1.500000 -0.019531
-0.117188 1.500000 -0.015625
-0.117188 1.500000 -0.011719
-0.117188 1.500000 -0.007812
-0.117188 1.500000 -0.003906
-0.117188 1.500000 0.000000
-0.117188 1.500000 0.003906
-0.117188 1.500000 0.007812
-0.117188 1.500000 0.011719
-0.117188 1.500000 0.015625
-0.117188 1.500000 0.019531
-0.117188 1.500000 0.023438
-0.117188 1.500000 0.027344
-0.117188 1.500000 0.031250
-0.117188 1.500000 0.035156
-0.117188 1.500000 0.039062
-0.117188 1.500000 0.042969
-0.117188 1.500000 0.046875
-0.117188 1.500000 0.050781
-0.117188 1.500000 0.054688
-0.117188 1.500000 0.058594
-0.117188 1.500000 0.062500
-0.117188 1.500000 0.066406
-0.117188 1.500000 0.070312
-0.117188 1.500000 0.074219
-0.117188 1.500000 0.078125
-0.117188 1.500000 0.082031
-0.117188 1.500000 0.085938
-0.117188 1.500000 0.089844
-0.117188 1.500000 0.093750
-0.117188 1.500000 0.097656
-0.117188 1.500000 0.101562
-0.117188 1.500000 0.105469
-0.117188 1.500000 0.109375
-0.117188 1.500000 0.113281
-0.117188 1.500000 0.117188
-0.117188 1.500000 0.121094
-0.117188 1.500000 0.125000
-0.113281 1.500000 -0.121094
-0.113281 1.500000 -0.125000
-0.113281 1.500000 -0.117188
-0.113281 1.500000 -0.113281
-0.113281 1.500000 -0.109375
-0.113281 1.500000 -0.105469
-0.113281 1.500000 -0.101562
-0.113281 1.500000 -0.097656
-0.113281 1.500000 -0.093750
-0.113281 1.500000 -0.089844
-0.113281 1.500000 -0.085938
-0.113281 1.500000 -0.082031
-0.113281 1.500000 -0.078125
-0.113281 1.500000 -0.074219
-0.113281 1.500000 -0.070312
-0.113281 1.500000 -0.066406
-0.113281 1.500000 -0.062500
-0.113281 1.500000 -0.058594
-0.113281 1.500000 -0.054688
-0.113281 1.500000 -0.050781
-0.113281 1.500000 -0.046875
-0.113281 1.500000 -0.042969
-0.113281 1.500000 -0.039062
-0.113281 1.500000 -0.035156
-0.113281 1.500000 -0.031250
-0.113281 1.500000 -0.027344
-0.113281 1.500000 -0.023438
-0.113281 1.500000 -0.019531
-0.113281 1.500000 -0.015625
-0.113281 1.500000 -0.011719
-0.113281 1.500000 -0.007812
-0.113281 1.500000 -0.003906
-0.113281 1.500000 0.000000
-0.113281 1.500000 0.003906
-0.113281 1.500000 0.007812
-0.113281 1.500000 0.011719
-0.113281 1.500000 0.015625
-0.113281 1.500000 0.019531
-0.113281 1.500000 0.023438
-0.113281 1.500000 0.027344
-0.113281 1.500000 0.031250
-0.113281 1.500000 0.035156
-0.113281 1.500000 0.039062
-0.113281 1.500000 0.042969
-0.113281 1.500000 0.046875
-0.113281 1.500000 0.050781
-0.113281 1.500000 0.054688
-0.113281 1.500000 0.058594
-0.113281 1.500000 0.062500
-0.113281 1.500000 0.066406
-0.113281 1.500000 0.070312
-0.113281 1.500000 0.074219
-0.113281 1.500000 0.078125
-0.113281 1.500000 0.082031
-0.113281 1.500000 0.085938
-0.113281 1.500000 0.089844
-0.113281 1.500000 0.093750
-0.113281 1.500000 0.097656
-0.113281 1.500000 0.101562
-0.113281 1.500000 0.105469
-0.113281 1.500000 0.109375
-0.113281 1.500000 0.113281
-0.113281 1.500000 0.117188
-0.113281 1.500000 0.121094
-0.113281 1.500000 0.125000
-0.109375 1.500000 -0.121094
-0.109375 1.500000 -0.125000
-0.109375 1.500000 -0.117188
-0.109375 1.500000 -0.113281
-0.109375 1.500000 -0.109375
-0.109375 1.500000 -0.105469
-0.109375 1.500000 -0.101562
-0.109375 1.500000 -0.097656
-0.109375 1.500000 -0.093750
-0.109375 1.500000 -0.089844
-0.109375 1.500000 -0.085938
-0.109375 1.500000 -0.082031
-0.109375 1.500000 -0.078125
-0.109375 1.500000 -0.074219
-0.109375 1.500000 -0.070312
-0.109375 1.500000 -0.066406
-0.109375 1.500000 -0.062500
-0.109375 1.500000 -0.058594
-0.109375 1.500000 -0.054688
-0.109375 1.500000 -0.050781
-0.109375 1.500000 -0.046875
-0.109375 1.500000 -0.042969
-0.109375 1.500000 -0.039062
-0.109375 1.500000 -0.035156
-0.109375 1.500000 -0.031250
-0.109375 1.500000 -0.027344
-0.109375 1.500000 -0.023438
-0.109375 1.500000 -0.019531
-0.109375 1.500000 -0.015625
-0.109375 1.500000 -0.011719
-0.109375 1.500000 -0.007812
-0.109375 1.500000 -0.003906
-0.109375 1.500000 0.000000
-0.109375 1.500000 0.003906
-0.109375 1.500000 0.007812
-0.109375 1.500000 0.011719
-0.109375 1.500000 0.015625
-0.109375 1.500000 0.019531
-0.109375 1.500000 0.023438
-0.109375 1.500000 0.027344
-0.109375 1.500000 0.031250
-0.109375 1.500000 0.035156
-0.109375 1.500000 0.039062
-0.109375 1.500000 0.042969
-0.109375 1.500000 0.046875
-0.109375 1.500000 0.050781
-0.109375 1.500000 0.054688
-0.109375 1.500000 0.058594
-0.109375 1.500000 0.062500
-0.109375 1.500000 0.066406
-0.109375 1.500000 0.070312
-0.109375 1.500000 0.074219
-0.109375 1.500000 0.078125
-0.109375 1.500000 0.082031
-0.109375 1.500000 0.085938
-0.109375 1.500000 0.089844
-0.109375 1.500000 0.093750
-0.109375 1.500000 0.097656
-0.109375 1.500000 0.101562
-0.109375 1.500000 0.105469
-0.109375 1.500000 0.109375
-0.109375 1.500000 0.113281
-0.109375 1.500000 0.117188
-0.109375 1.500000 0.121094
-0.109375 1.500000 0.125000
-0.105469 1.500000 -0.121094
-0.105469 1.500000 -0.125000
-0.105469 1.500000 -0.117188
-0.105469 1.500000 -0.113281
-0.105469 1.500000 -0.109375
-0.105469 1.500000 -0.105469
-0.105469 1.500000 -0.101562
-0.105469 1.500000 -0.097656
-0.105469 1.500000 -0.093750
-0.105469 1.500000 -0.089844
-0.105469 1.500000 -0.085938
-0.105469 1.500000 -0.082031
-0.105469 1.500000 -0.078125
-0.105469 1.500000 -0.074219
-0.105469 1.500000 -0.070312
-0.105469 1.500000 -0.066406
-0.105469 1.500000 -0.062500
-0.105469 1.500000 -0.058594
-0.105469 1.500000 -0.054688
-0.105469 1.500000 -0.050781
-0.105469 1.500000 -0.046875
-0.105469 1.500000 -0.042969
[...]
CELL_DATA 8192
SCALARS Front_faces_Incoming_flux double 2
LOOKUP_TABLE default
0 0
0 0
0 0
0 0
0 0
0 0
0 0
0 0
0 0
0 0
0 0
0 0
0 0
0 0
0 0
0 0
0 0
0 0
0 0
0 0
0 0
0 0
0 0
0 0
0 0
0 0
0 0
0 0
0 0
0 0
0 0
0 0
0 0
0 0
0 0
0 0
0 0
0 0
0 0
0 0
0 0
0 0
0 0
0 0
0 0
0 0
0 0
0 0
0 0
0 0
0 0
0 0
0 0
0 0
0 0
0 0
0 0
0 0
0 0
0 0
0 0
0 0
0 0
0 0
0 0
0 0
0 0
0 0
0 0
0 0
0 0
0 0
0 0
0 0
0 0
0 0
0 0
0 0
0 0
0 0
0 0
0 0
0 0
0 0
0 0
0 0
0 0
0 0
0 0
0 0
0 0
0 0
0 0
0 0
0 0
0 0
0 0
0 0
0 0
0 0
0 0
0 0
0 0
0 0
0 0
0 0
0 0
0 0
0 0
0 0
0 0
0 0
0 0
0 0
0 0
0 0
0 0
0 0
0 0
0 0
0 0
0 0
0 0
0 0
0 0
0 0
0 0
0 0
0 0
0 0
0 0
0 0
0 0
0 0
0 0
0 0
0 0
0 0
0 0
0 0
0 0
0 0
0 0
0 0
0 0
0 0
0 0
0 0
0 0
0 0
0 0
0 0
0 0
0 0
0 0
0 0
0 0
0 0
0 0
0 0
0 0
0 0
0 0
0 0
0 0
0 0
0 0
0 0
0 0
0 0
0 0
0 0
0 0
0 0
0 0
0 0
0 0
0 0
0 0
0 0
0 0
0 0
0 0
0 0
0 0
0 0
0 0
0 0
0 0
0 0
0 0
0 0
0 0
0 0
0 0
0 0
0 0
0 0
0 0
0 0
0 0
0 0
0 0
0 0
0 0
0 0
0 0
0 0
0 0
0 0
0 0
0 0
0 0
0 0
0 0
0 0
0 0
0 0
0 0
0 0
0 0
0 0
0 0
0 0
0 0
0 0
0 0
0 0
0 0
0 0
0 0
0 0
0 0
0 0
0 0
0 0
0 0
0 0
0 0
0 0
0 0
0 0
0 0
0 0
0 0
0 0
0 0
0 0
0 0
0 0
0 0
0 0
0 0
0 0
0 0
0 0
0 0
0 0
0 0
0 0
0 0
0 0
0 0
0 0
0 0
0 0
0 0
0 0
0 0
0 0
0 0
0 0
0 0
0 0
0 0
0 0
0 0
0 0
0 0
0 0
0 0
0 0
0 0
0 0
0 0
0 0
0 0
0 0
0 0
0 0
0 0
0 0
0 0
0 0
0 0
0 0
0 0
0 0
0 0
0 0
0 0
0 0
0 0
0 0
0 0
0 0
0 0
0 0
0 0
0 0
0 0
0 0
0 0
0 0
0 0
0 0
0 0
0 0
0 0
0 0
0 0
0 0
0 0
0 0
0 0
0 0
0 0
0 0
0 0
0 0
0 0
0 0
0 0
0 0
0 0
0 0
0 0
0 0
0 0
0 0
0 0
0 0
0 0
0 0
0 0
0 0
0 0
0 0
0 0
0 0
0 0
0 0
0 0
0 0
0 0
0 0
0 0
0 0
0 0
0 0
0 0
0 0
0 0
0 0
0 0
0 0
0 0
0 0
0 0
0 0
0 0
0 0
0 0
0 0
0 0
0 0
0 0
0 0
0 0
0 0
0 0
0 0
0 0
0 0
0 0
0 0
0 0
0 0
0 0
0 0
0 0
0 0
0 0
0 0
0 0
0 0
0 0
0 0
0 0
0 0
0 0
0 0
0 0
0 0
0 0
0 0
0 0
0 0
0 0
0 0
0 0
0 0
0 0
0 0
0 0
0 0
0 0
0 0
0 0
0 0
0 0
0 0
0 0
0 0
0 0
0 0
0 0
0 0
0 0
0 0
0 0
0 0
0 0
0 0
0 0
0 0
0 0
0 0
0 0
0 0
0 0
0 0
0 0
0 0
0 0
0 0
0 0
0 0
0 0
0 0
0 0
0 0
0 0
0 0
0 0
0 0
0 0
0 0
0 0
0 0
0 0
0 0
0 0
0 0
0 0
0 0
0 0
0 0
0 0
0 0
0 0
0 0
0 0
0 0
0 0
0 0
0 0
0 0
0 0
0 0
0 0
0 0
0 0
0 0
0 0
0 0
0 0
0 0
0 0
0 0
0 0
0 0
0 0
0 0
0 0
0 0
0 0
0 0
0 0
0 0
0 0
0 0
0 0
0 0
0 0
0 0
0 0
0 0
0 0
0 0
0 0
0 0
0 0
0 0
0 0
0 0
0 0
0 0
0 0
0 0
0 0
0 0
0 0
0 0
0 0
0 0
0 0
0 0
0 0
0 0
0 0
0 0
0 0
0 0
0 0
0 0
0 0
0 0
0 0
0 0
0 0
0 0
0 0
0 0
0 0
0 0
0 0
0 0
0 0
0 0
0 0
0 0
0 0
0 0
0 0
0 0
0 0
0 0
0 0
0 0
0 0
0 0
0 0
0 0
0 0
0 0
0 0
0 0
0 0
0 0
0 0
0 0
0 0
0 0
0 0
0 0
0 0
0 0
0 0
0 0
0 0
0 0
0 0
0 0
0 0
0 0
0 0
0 0
0 0
0 0
0 0
0 0
0 0
0 0
0 0
0 0
0 0
0 0
0 0
0 0
0 0
0 0
0 0
0 0
0 0
0 0
0 0
0 0
0 0
0 0
0 0
0 0
0 0
0 0
0 0
0 0
0 0
0 0
0 0
0 0
0 0
0 0
0 0
0 0
0 0
0 0
0 0
0 0
0 0
0 0
0 0
0 0
0 0
0 0
0 0
0 0
0 0
0 0
0 0
0 0
0 0
0 0
0 0
0 0
0 0
0 0
0 0
0 0
0 0
0 0
0 0
0 0
0 0
0 0
0 0
0 0
0 0
0 0
0 0
0 0
0 0
0 0
0 0
0 0
0 0
0 0
0 0
0 0
0 0
0 0
0 0
0 0
0 0
0 0
0 0
0 0
0 0
0 0
0 0
0 0
0 0
0 0
0 0
0 0
0 0
0 0
0 0
0 0
0 0
0 0
0 0
0 0
0 0
0 0
0 0
0 0
0 0
0 0
0 0
0 0
0 0
0 0
0 0
0 0
0 0
0 0
0 0
0 0
0 0
0 0
0 0
0 0
0 0
0 0
0 0
0 0
0 0
0 0
0 0
0 0
0 0
0 0
0 0
0 0
0 0
0 0
0 0
0 0
0 0
0 0
0 0
0 0
0 0
0 0
0 0
0 0
0 0
0 0
0 0
0 0
0 0
0 0
0 0
0 0
0 0
0 0
0 0
0 0
0 0
0 0
0 0
0 0
0 0
0 0
0 0
0 0
0 0
0 0
0 0
0 0
0 0
0 0
0 0
0 0
0 0
0 0
0 0
0 0
0 0
0 0
0 0
0 0
0 0
0 0
0 0
0 0
0 0
0 0
0 0
0 0
0 0
0 0
0 0
0 0
0 0
0 0
0 0
0 0
0 0
0 0
0 0
0 0
0 0
0 0
0 0
0 0
0 0
0 0
0 0
0 0
0 0
0 0
0 0
0 0
0 0
0 0
0 0
0 0
0 0
0 0
0 0
0 0
0 0
0 0
0 0
0 0
0 0
0 0
0 0
0 0
0 0
0 0
0 0
0 0
0 0
0 0
0 0
0 0
0 0
0 0
0 0
0 0
0 0
0 0
0 0
0 0
0 0
0 0
0 0
0 0
0 0
0 0
0 0
0 0
0 0
0 0
0 0
0 0
0 0
0 0
0 0
0 0
0 0
0 0
0 0
0 0
0 0
0 0
0 0
0 0
0 0
0 0
0 0
0 0
0 0
0 0
0 0
0 0
0 0
0 0
0 0
0 0
0 0
0 0
0 0
0 0
0 0
0 0
0 0
0 0
0 0
0 0
0 0
0 0
0 0
0 0
0 0
0 0
0 0
0 0
0 0
0 0
0 0
0 0
0 0
0 0
0 0
0 0
0 0
0 0
0 0
0 0
0 0
0 0
0 0
0 0
0 0
0 0
0 0
0 0
0 0
0 0
0 0
0 0
0 0
0 0
0 0
0 0
0 0
0 0
0 0
0 0
0 0
0 0
0 0
0 0
0 0
0 0
0 0
0 0
0 0
0 0
0 0
0 0
0 0
0 0
0 0
0 0
0 0
0 0
0 0
0 0
0 0
0 0
0 0
0 0
0 0
0 0
0 0
0 0
0 0
0 0
0 0
0 0
0 0
0 0
0 0
0 0
0 0
0 0
0 0
0 0
0 0
0 0
0 0
0 0
0 0
0 0
0 0
0 0
0 0
0 0
0 0
0 0
0 0
0 0
0 0
0 0
0 0
0 0
0 0
0 0
0 0
0 0
0 0
0 0
0 0
0 0
0 0
0 0
0 0
0 0
0 0
0 0
0 0
0 0
0 0
0 0
0 0
0 0
0 0
0 0
0 0
0 0
0 0
0 0
0 0
0 0
0 0
0 0
0 0
0 0
0 0
0 0
0 0
0 0
0 0
0 0
0 0
0 0
0 0
0 0
0 0
0 0
0 0
0 0
0 0
0 0
0 0
0 0
0 0
0 0
0 0
0 0
0 0
0 0
0 0
0 0
0 0
0 0
0 0
0 0
0 0
0 0
0 0
0 0
0 0
0 0
0 0
0 0
0 0
0 0
0 0
0 0
0 0
0 0
0 0
0 0
0 0
0 0
0 0
0 0
0 0
0 0
0 0
0 0
0 0
0 0
0 0
0 0
0 0
0 0
0 0
0 0
0 0
0 0
0 0
0 0
0 0
0 0
0 0
0 0
0 0
0 0
0 0
0 0
0 0
0 0
0 0
0 0
0 0
0 0
0 0
0 0
0 0
0 0
0 0
0 0
0 0
0 0
0 0
0 0
0 0
0 0
0 0
0 0
0 0
0 0
0 0
0 0
0 0
0 0
0 0
0 0
0 0
0 0
0 0
0 0
0 0
0 0
0 0
0 0
0 0
0 0
0 0
0 0
0 0
0 0
0 0
0 0
0 0
0 0
0 0
0 0
0 0
0 0
0 0
0 0
0 0
0 0
0 0
0 0
0 0
0 0
0 0
0 0
0 0
0 0
0 0
0 0
0 0
0 0
0 0
0 0
0 0
0 0
0 0
0 0
0 0
0 0
0 0
0 0
0 0
0 0
0 0
0 0
0 0
0 0
0 0
0 0
0 0
0 0
0 0
0 0
0 0
0 0
0 0
0 0
0 0
0 0
0 0
0 0
0 0
0 0
0 0
0 0
0 0
0 0
0 0
0 0
0 0
0 0
0 0
0 0
0 0
0 0
0 0
0 0
0 0
0 0
0 0
0 0
0 0
0 0
0 0
0 0
0 0
0 0
0 0
0 0
0 0
0 0
0 0
0 0
0 0
0 0
0 0
0 0
0 0
0 0
0 0
0 0
0 0
0 0
0 0
0 0
0 0
0 0
0 0
0 0
0 0
0 0
0 0
0 0
0 0
0 0
0 0
0 0
0 0
0 0
0 0
0 0
0 0
0 0
0 0
0 0
0 0
0 0
0 0
0 0
0 0
0 0
0 0
0 0
0 0
0 0
0 0
0 0
0 0
0 0
0 0
0 0
0 0
0 0
0 0
0 0
0 0
0 0
0 0
0 0
0 0
0 0
0 0
0 0
0 0
0 0
0 0
0 0
0 0
0 0
0 0
0 0
0 0
0 0
0 0
0 0
0 0
0 0
0 0
0 0
0 0
0 0
0 0
0 0
0 0
0 0
0 0
0 0
0 0
0 0
0 0
0 0
0 0
0 0
0 0
0 0
0 0
0 0
0 0
0 0
0 0
0 0
0 0
0 0
0 0
0 0
0 0
0 0
0 0
0 0
0 0
0 0
0 0
0 0
0 0
0 0
0 0
0 0
0 0
0 0
0 0
0 0
0 0
0 0
0 0
0 0
0 0
0 0
0 0
0 0
0 0
0 0
0 0
0 0
0 0
0 0
0 0
0 0
0 0
0 0
0 0
0 0
0 0
0 0
0 0
0 0
0 0
0 0
0 0
0 0
0 0
0 0
0 0
0 0
0 0
0 0
0 0
0 0
0 0
0 0
0 0
0 0
0 0
0 0
0 0
0 0
0 0
0 0
0 0
0 0
0 0
0 0
0 0
0 0
0 0
0 0
0 0
0 0
0 0
0 0
0 0
0 0
0 0
0 0
0 0
0 0
0 0
0 0
0 0
0 0
0 0
0 0
0 0
0 0
0 0
0 0
0 0
0 0
0 0
0 0
0 0
0 0
0 0
0 0
0 0
0 0
0 0
0 0
0 0
0 0
0 0
0 0
0 0
0 0
0 0
0 0
0 0
0 0
0 0
0 0
0 0
0 0
0 0
0 0
0 0
0 0
0 0
0 0
0 0
0 0
0 0
0 0
0 0
0 0
0 0
0 0
0 0
0 0
0 0
0 0
0 0
0 0
0 0
0 0
0 0
0 0
0 0
0 0
0 0
0 0
0 0
0 0
0 0
0 0
0 0
0 0
0 0
0 0
0 0
0 0
0 0
0 0
0 0
0 0
0 0
0 0
0 0
0 0
0 0
0 0
0 0
0 0
0 0
0 0
0 0
0 0
0 0
0 0
0 0
0 0
0 0
0 0
0 0
0 0
0 0
0 0
0 0
0 0
0 0
0 0
0 0
0 0
0 0
0 0
0 0
0 0
0 0
0 0
0 0
0 0
0 0
0 0
0 0
0 0
0 0
0 0
0 0
0 0
0 0
0 0
0 0
0 0
0 0
0 0
0 0
0 0
0 0
0 0
0 0
0 0
0 0
0 0
0 0
0 0
0 0
0 0
0 0
0 0
0 0
0 0
0 0
0 0
0 0
0 0
0 0
0 0
0 0
0 0
0 0
0 0
0 0
0 0
0 0
0 0
0 0
0 0
0 0
0 0
193.362 193.362
0 0
388.333 274.592
0 0
1165.49 475.81
0 0
778.813 389.406
194.166 194.166
2919.28 753.75
778.765 389.382
4657.65 950.739
1553.43 549.219
4656.25 950.452
2331.02 672.907
4270.16 910.396
1747.77 582.588
5430.57 1026.28
1551.34 548.481
4264.54 909.204
1551.76 548.63
4078.23 889.936
2522.17 699.522
3689.35 846.388
2521.77 699.413
5823.38 1063.19
1359.69 513.914
5238.79 1008.2
1162.83 474.727
6018.06 1080.86
2911.5 751.744
5047.83 989.952
2911.53 751.753
5633.67 1046.13
1551.47 548.527
5247.63 1009.9
1167.34 476.563
4463 930.593
1552.28 548.814
3883.76 868.43
1359.07 513.681
3109.49 777.37
1551.09 548.394
5822.38 1063.01
2329.36 672.427
4462.25 930.437
2330.59 672.781
5237.9 1008.03
1553.69 549.312
5242.6 1008.93
776.268 388.135
4470.36 932.128
1359.83 513.967
4852.32 970.457
1746.87 582.291
4656.85 950.568
388.99 275.058
5047.57 989.902
2138.33 644.73
3499.63 824.866
2332.43 673.312
5053.8 991.121
1938.01 612.851
5044.93 989.385
2524.46 700.158
4462.95 930.586
1936.98 612.526
4464.44 930.895
2329.9 672.582
5036.32 987.697
2134.69 643.633
4267.19 909.766
1747.68 582.558
4657.92 950.791
1749.44 583.143
2332.17 673.237
1556.49 550.302
1748.28 582.761
389.648 275.522
776.695 388.348
194.639 194.639
582.361 336.226
0 0
193.297 193.296
0 0
0 0
0 0
0 0
0 0
0 0
0 0
0 0
0 0
0 0
0 0
0 0
0 0
0 0
0 0
0 0
0 0
0 0
0 0
0 0
0 0
0 0
0 0
0 0
0 0
0 0
0 0
0 0
0 0
0 0
0 0
0 0
0 0
0 0
0 0
0 0
0 0
0 0
0 0
0 0
0 0
0 0
0 0
0 0
193.362 193.362
1156.99 472.34
386.725 273.455
1546.27 546.692
1936.93 612.511
2899.24 748.583
3684.98 845.391
5422.3 1024.72
4262.87 908.844
8911.82 1313.97
6006.66 1078.82
11375 1480.92
9671.16 1367.72
14488.7 1673
8898.8 1312.06
16808.1 1801.98
7748.13 1225.08
14281.6 1660.18
10635.7 1434.1
12540.3 1555.43
9284.27 1340.06
12943.5 1581.28
8897.49 1311.86
14678.5 1683.71
10064.8 1395.71
13139.9 1593.43
11034 1461.47
11025.6 1460.36
9468.63 1352.66
12171.3 1533.43
8895.85 1311.61
14094.6 1649.62
9287.4 1340.5
12750.9 1569.5
9879.92 1383.45
12744.9 1568.76
9089.26 1325.79
15261.4 1717.01
9680.18 1368.97
12184.3 1535.05
8699.37 1296.81
11212.3 1472.23
10837.2 1448.16
10620.6 1432.07
9291.85 1341.15
11607.1 1498.45
9688.05 1370.08
11981.3 1521.61
9686.59 1369.88
11193.8 1469.8
9103.61 1327.88
12366.3 1545.77
8516.33 1283.87
11783.9 1508.76
8907.16 1313.28
10822.2 1446.16
8327.01 1269.85
10046.9 1393.25
8706.71 1297.91
12744.1 1568.68
9288.54 1340.67
15251.9 1715.94
10261.9 1409.57
15053.5 1704.44
8715.67 1299.25
13126.1 1591.76
10451.5 1422.26
12356.9 1544.6
9856.53 1380.19
14675.5 1683.37
9682.76 1369.33
13106.1 1589.34
9088.12 1325.64
12155.5 1531.44
9680.65 1369.04
10441.9 1420.95
5238.14 1008.07
5616.08 1042.88
4853.17 970.626
2323.66 670.782
2911.1 751.641
3480.35 820.324
2518.62 698.537
963.289 430.799
579.89 334.799
386.593 273.362
0 0
0 0
0 0
0 0
0 0
0 0
0 0
0 0
0 0
0 0
0 0
0 0
0 0
0 0
0 0
0 0
0 0
0 0
0 0
0 0
0 0
0 0
0 0
0 0
0 0
0 0
0 0
0 0
0 0
0 0
0 0
0 0
0 0
0 0
0 0
0 0
0 0
0 0
0 0
0 0
0 0
0 0
0 0
2104.2 634.457
1930.44 610.457
5177.51 996.442
4050.53 883.909
8093.16 1248.81
6746.85 1140.43
11753.9 1494.48
13292 1590.12
20620.9 1960.75
20978.2 1993.53
29674.1 2363.1
19344.7 1916.56
28792.2 2336.66
25064.4 2190.2
26306.6 2225.76
19489.5 1930.53
24888.7 2168.09
18926.1 1902.68
27593.2 2292.36
20733.2 1995.09
27801.9 2301.63
21463.4 2028.16
22875.7 2088.78
22280.8 2068.74
23160.7 2105.56
21505.2 2032.06
26366.5 2244.51
19202.9 1920.3
28337.4 2329.35
19611.6 1941.82
23551.6 2123.61
18058.5 1862.6
26368.5 2244.67
19963.1 1957.55
23962.1 2143.25
22097.1 2060.53
27377.8 2289.42
24030.3 2149.33
21246.6 2016.66
24192.6 2155.21
21265.6 2018.46
19763.7 1947.38
23554.7 2123.87
19033 1912.87
20700.6 1991.95
16922.4 1803.94
20480.6 1979.97
20560.6 1987.64
26210.7 2239.34
20566.5 1988.24
25643.7 2215.29
20362.9 1977.84
26142.3 2233.49
18411.4 1879.13
25015.9 2185.65
18054.3 1862.18
24665.4 2171.76
16700.4 1790.5
23869.8 2135.07
21717.2 2042.98
25273.1 2199.79
23399.6 2118.55
24220.7 2149.38
22445.9 2075.17
21131.2 2006.29
21516.8 2033.15
24575.2 2164.26
19364 1926.86
28836.8 2340.18
24890.8 2183.28
28388.5 2312.65
23154.1 2105.18
27457.1 2274.85
17524.7 1828.06
22066.9 2034.1
14435 1657.61
13851.7 1613.01
6910.02 1152.11
7108.93 1168.72
5768.5 1053.19
4617.6 942.574
3282.06 796.023
1344.68 508.251
765.978 383.005
0 0
0 0
0 0
0 0
0 0
0 0
0 0
0 0
0 0
0 0
0 0
0 0
0 0
0 0
0 0
0 0
0 0
0 0
0 0
0 0
0 0
0 0
0 0
0 0
0 0
0 0
0 0
0 0
0 0
0 0
0 0
0 0
0 0
0 0
0 0
0 0
0 0
0 0
0 0
0 0
0 0
0 0
0 0
0 0
1913.59 605.16
2669.34 713.459
4208.92 897.399
7654.36 1210.31
11241.6 1463.68
10133.4 1392.01
20924.7 1963.35
28771 2307.03
40469.7 2720.76
38066.2 2649.52
49476.9 3009.48
46557.1 2936.56
54554.3 3164.87
47537.9 2968.72
54907.3 3174.66
41463.5 2768.26
45313.3 2887.32
43572.2 2845.27
45584.9 2892.83
39142.3 2697.47
51116.8 3058.68
46413.9 2938.59
49510.6 3022.76
40717.9 2754.34
54433.1 3168.1
41320.4 2776.2
47549.2 2958.54
45605.6 2922.11
53459.1 3137.5
41062.5 2765.07
42687.5 2806.21
31527.2 2433.69
54279.5 3169.13
36317.8 2615.75
51245.4 3077.17
35720.5 2593.02
51879.4 3097.83
33969.5 2532.53
46502.9 2932.31
36481.1 2626.79
49512.8 3027.59
30270.6 2393.84
46370.6 2929.88
36007.7 2606.08
44859.6 2886.38
37264.5 2655.6
50155 3049.63
40091.8 2748.34
45714.7 2906.13
35715.8 2598.71
48740 2997.9
35425.1 2584.72
48479.6 2992.58
33873.6 2519.54
46822.7 2947.05
39549.6 2718.6
52651.6 3117.22
38676.2 2690.49
47973.7 2972.97
33448.4 2501.97
58715.8 3291.25
36916.4 2608.01
52409 3109.28
46596.4 2949.85
53356.2 3131.65
45255.6 2895.15
53866.2 3145.59
42352.3 2802.09
45096.5 2879.64
43033.7 2822.78
58294.3 3273.79
36025.2 2582.85
48532 2979.73
42013.1 2786.15
42239.4 2783.13
36622.5 2587.54
29295.6 2320.07
16392.1 1759.31
14095.9 1638.74
9561.15 1352.2
4563.13 931.525
5365.87 1014.09
5914.17 1062.29
1915.36 605.707
0 0
0 0
0 0
0 0
0 0
0 0
0 0
0 0
0 0
0 0
0 0
0 0
0 0
0 0
0 0
0 0
0 0
0 0
0 0
0 0
0 0
0 0
0 0
0 0
0 0
0 0
0 0
0 0
0 0
0 0
0 0
0 0
0 0
0 0
0 0
0 0
0 0
0 0
0 0
0 0
0 0
0 0
0 0
0 0
958.429 428.629
4165.06 888.14
5444.89 1011.42
7310.99 1171.02
15911.5 1726.61
22731.6 2059.49
32541.7 2429.36
39847.6 2684.69
62027 3349.12
50649.6 3041.9
68147.6 3519.4
58095.7 3256.99
62733.1 3377.79
61348.2 3332.46
65862.9 3461.46
65754 3456.35
63817.3 3401.77
70021.3 3560.2
61959.6 3350.63
65465.8 3445.84
73759.9 3657.2
60902.9 3322.5
65284.8 3436.42
64908.4 3426.45
75981.5 3699.93
59858.5 3285.09
67521.3 3487.47
69893.5 3553.95
69924.6 3555.25
69601.1 3552.76
74074.5 3663.53
67828.2 3512.14
71341.6 3581.59
62513.6 3356.46
72855.1 3630.01
68580.4 3514.59
72639.4 3606.47
68576.1 3523.48
77572.1 3738.26
75652 3692.92
70995.4 3573.3
78342 3766.17
67730.5 3489.57
74324.8 3654.51
72853.6 3630.46
74545.8 3665.09
70399.8 3570.22
72478.5 3607.14
70290.4 3551.02
72638.7 3623.91
70053.8 3566.47
67931.3 3494.44
69861.6 3547.64
67850.2 3503.85
68493.4 3509.85
67460.7 3497.76
71308.9 3589.24
72130.5 3616.58
73294.9 3634.21
75474.2 3705.32
77585 3747.17
64007 3406.76
71920.6 3606.15
57612.2 3230.64
69181 3535.98
65031 3432.66
62315.3 3360.16
64423.9 3423.79
60997.6 3317.58
65284.5 3445.82
69801.6 3558.4
63601.6 3399.65
63565.6 3407.28
63266.9 3391.64
52615.3 3083.88
55274.6 3164.59
44093.5 2821.74
28800.6 2294.67
23372.8 2083.77
14295 1640.15
13637.8 1596.74
5877.44 1055.8
3411.74 804.213
3600.14 826.004
0 0
0 0
0 0
0 0
0 0
0 0
0 0
0 0
0 0
0 0
0 0
0 0
0 0
0 0
0 0
0 0
0 0
0 0
0 0
0 0
0 0
0 0
0 0
0 0
0 0
0 0
0 0
0 0
0 0
0 0
0 0
0 0
0 0
0 0
0 0
0 0
0 0
0 0
0 0
0 0
0 0
0 0
0 0
0 0
1887.94 597.133
3380.91 797.104
8548.11 1261.19
12291.2 1502.97
18544.7 1830.1
21478.3 1972.09
41111.4 2715.85
48411.9 2945.82
59674.9 3270.56
60248.3 3291.94
71714.2 3591.28
72022.1 3607.2
70901.8 3577.39
69022.9 3527.34
68446.5 3507.57
72371.8 3601.73
75289.6 3679.37
68382.5 3508.88
76554.6 3710.32
78558 3759.8
75487.7 3685
76822.2 3724.02
73826.4 3647.04
65290.9 3432.75
73289.2 3647.43
69788.7 3539.51
75606.4 3694.97
73297.9 3630.32
67949.3 3495.55
70804 3568.23
68509.8 3506.58
70492.3 3561.2
70672 3566.43
77884 3744.44
74079.8 3651.47
72898.6 3623.75
64151.4 3404.88
74259.2 3654.94
78465.4 3767.74
71316.1 3576.16
67679.5 3495.63
73802.5 3646.48
70283.8 3559.9
68860.3 3520.2
67881.6 3497.4
69820.1 3545.87
73415.7 3631.92
74123 3653.1
70697.7 3567.77
72565.7 3611.94
72690.1 3621.5
76895.1 3714.04
62724.4 3352.72
73109.2 3625.15
79247.5 3775.49
73947.3 3657.78
78066.7 3745.16
71300.9 3584
63627.7 3382.81
70974.1 3572.21
71794.9 3595.14
73566.8 3651.85
77050.7 3730.12
69126.1 3524.11
74721.8 3665.14
72814.2 3623.6
72140 3604.04
69294.1 3532.51
77526.8 3731.82
68940.5 3537.06
75473.9 3684.21
70006.8 3550.87
70776 3571.31
68241 3510.56
73435.2 3628.48
60558.4 3294.52
47717.6 2925.47
42544 2767.84
28013.1 2253.39
22654.8 2036.68
14718.6 1647.41
10473.8 1400.27
4114.05 877.497
1890.02 597.823
0 0
0 0
0 0
0 0
0 0
0 0
0 0
0 0
0 0
0 0
0 0
0 0
0 0
0 0
0 0
0 0
0 0
0 0
0 0
0 0
0 0
0 0
0 0
0 0
0 0
0 0
0 0
0 0
0 0
0 0
0 0
0 0
0 0
0 0
0 0
0 0
0 0
0 0
0 0
0 0
0 0
0 0
0 0
0 0
572.447 330.532
2440.51 676.984
11672.4 1471.71
15181.8 1668.67
22250.1 2009.51
27631.7 2230.29
41134.7 2716.67
52099.2 3059.61
67688 3482.5
71235.7 3576.28
76174.3 3704.65
79780.9 3788
69871.4 3543.74
68761.3 3523.98
70042.6 3556.96
76991.2 3727.17
77227.3 3733.91
72696.7 3626.79
72357.5 3614.44
68344.9 3502.03
66923.2 3466.45
75894.8 3695.75
66229.4 3453.35
71635.7 3587.61
74383.7 3666
61406.1 3316.19
76071.6 3712.97
70567.7 3560.41
76943.3 3725.06
77645.6 3746.01
75049.6 3667.91
67523.3 3483.19
73952.4 3661.87
71289.5 3588.08
73652.1 3643.07
70979.3 3581.49
75267.3 3678.57
68242.5 3506.69
73609.6 3645.51
66305.8 3452.84
78083.7 3754
68216.6 3509.83
70500.9 3561.97
68609.2 3525.18
74012.8 3638.66
74187.9 3651.73
75711.8 3695.54
71886 3604.65
71273.8 3573.75
74220.5 3661.9
73649.4 3638.52
67460.2 3485
74552.2 3665.29
76264.9 3701.02
70865.9 3571.63
72434.2 3614.03
68144.1 3501
68962 3529.23
76486.3 3711.6
76897.3 3722.63
70989 3577.91
78268.9 3753.3
74894.7 3677.43
71984.6 3600.37
72304.9 3607.99
74044.5 3644.99
74703 3668.68
75447.9 3691.74
72547.9 3615.27
69098.8 3522.56
72522.8 3614.02
68620.8 3520.84
71592.8 3590.06
73582.2 3639.72
72506.4 3604.48
58680.5 3240.6
50131.5 3001.45
41984.6 2743.49
30693.9 2358.06
20172.2 1909.37
14471.1 1629.87
9546.42 1324.93
2436.72 675.992
1132.67 462.494
0 0
0 0
0 0
0 0
0 0
0 0
0 0
0 0
0 0
0 0
0 0
0 0
0 0
0 0
0 0
0 0
0 0
0 0
0 0
0 0
0 0
0 0
0 0
0 0
0 0
0 0
0 0
0 0
0 0
0 0
0 0
0 0
0 0
0 0
0 0
0 0
0 0
0 0
0 0
0 0
0 0
0 0
0 0
0 0
0 0
1138.85 464.979
9187.02 1299.97
12491.3 1505.75
20454.6 1926.56
27008 2201.76
43151 2784.38
53602.1 3095.28
72098.6 3593.17
65822.6 3445.97
77609.6 3735.9
78191.8 3754.89
72292.6 3602.35
70620.3 3572.42
67828.3 3498.47
71536.9 3587.28
75061.2 3676.65
74135.3 3657.89
71345.5 3572.85
69085.9 3521.94
77843.5 3750.88
75046.9 3676.09
71584.8 3585.36
75215.9 3676.04
69159.9 3534.98
82007.4 3846.08
66290.6 3456.8
79980.2 3801.71
75634.7 3696.37
75728.1 3692.11
74979.3 3682.01
71192.5 3591.91
67067.3 3473.39
75640.5 3692.45
72237.5 3608.6
72737.8 3624.45
71096.8 3574.16
70249.5 3549.74
72216.9 3607.13
77967.7 3757.06
72904.9 3624.05
71493.6 3594.12
71747.9 3602.12
82375.6 3855.07
72171.8 3609.47
70327.7 3557.71
69859.8 3560.94
71063.6 3576.84
69605.4 3539.16
72455.3 3606.34
66432.9 3454.61
72389.7 3611.47
73308.8 3630.36
72875.7 3609.63
75809.4 3700.51
74014.1 3647.57
74754.7 3657.92
78946.3 3769.56
76104.7 3697.46
73983.5 3646.31
76637.5 3723.43
73128 3630.6
74528.2 3668.32
72605.5 3617.81
76754.1 3719.91
74950.6 3680.27
73902.7 3650.92
75150.1 3677.34
65416.8 3438.77
72347.4 3622.47
71683.3 3589.94
76908.9 3723.16
74433.1 3671.87
72135.6 3603.72
72378.8 3607.11
63647.1 3383.45
58371.1 3228.22
41697.9 2742.54
27345.1 2228.63
23629.3 2067.52
11467.2 1446.48
8993.51 1286.24
2468.03 684.626
571.085 329.72
0 0
0 0
0 0
0 0
0 0
0 0
0 0
0 0
0 0
0 0
0 0
0 0
0 0
0 0
0 0
0 0
0 0
0 0
0 0
0 0
0 0
0 0
0 0
0 0
0 0
0 0
0 0
0 0
0 0
0 0
0 0
0 0
0 0
0 0
0 0
0 0
0 0
0 0
0 0
0 0
0 0
0 0
0 0
0 0
0 0
187.317 187.317
5770.37 1037.21
12195.6 1502.32
18593.7 1834.78
27885.1 2243.3
48677.7 2956.61
53330.2 3094.94
68460.7 3503.77
64820 3408.25
71266.2 3573.55
77397.8 3725.53
74070.1 3646.58
74460.7 3660.69
72775.9 3617.36
76091 3700.8
61967.8 3336.68
71689.3 3590.21
69671.6 3551.44
70500.8 3566.6
80716.5 3811.02
72534.4 3627.3
78528 3762.37
76632.9 3701.34
70515.1 3562.9
70880.8 3575.93
74017.8 3656.75
74123.9 3657.64
75207.8 3684.23
68992.6 3521.9
75282.1 3679.43
75786.4 3691.04
68908.1 3530.81
66848 3471.46
74218.3 3653.28
73686.8 3635.85
73286 3638.21
72111.5 3610.81
74812.9 3677.47
74294.8 3657.66
64647.2 3417.13
67929.4 3499.41
79140.7 3774.66
68744.2 3518.28
72666.7 3616.85
74057.4 3649.55
79436.9 3780.38
67377.9 3484.68
68077.9 3502.36
67898.1 3497.6
71763.4 3593.58
74660.4 3665.78
72784.3 3622.65
71391.7 3588.35
73244.8 3632
72679.9 3621.21
74833.1 3670.32
66004.5 3441.6
68519.9 3515.89
66162 3449.99
76511.4 3716.99
71558.5 3596.64
77917.3 3750.6
78333.8 3761.54
72931.7 3629.48
75016.4 3674.42
71833.8 3602.05
73471.6 3629.93
77562.7 3729.17
69482.6 3537.39
74093 3656.23
78342.4 3761.97
70994.9 3586.25
70056.1 3557.47
69395.1 3528.53
70377 3556.02
48934.4 2955.84
45762.5 2854.26
25209.2 2141.36
21909.1 1986.72
12301.5 1504.48
7643.97 1180.93
757.044 378.575
193.297 193.296
0 0
0 0
0 0
0 0
0 0
0 0
0 0
0 0
0 0
0 0
0 0
0 0
0 0
0 0
0 0
0 0
0 0
0 0
0 0
0 0
0 0
0 0
0 0
0 0
0 0
0 0
0 0
0 0
0 0
0 0
0 0
0 0
0 0
0 0
0 0
0 0
0 0
0 0
0 0
0 0
0 0
0 0
0 0
0 0
0 0
0 0
5218.75 986.761
8939.43 1278.43
19626 1882.66
24833.3 2117.37
52790.3 3078.7
54835 3129.73
63988.4 3387.42
70221.2 3560.86
72831.8 3625.04
73126.1 3625.9
70507.1 3562.58
76487.3 3711.63
70712.6 3559
78404.8 3756.33
76781 3725.27
77289.2 3723.83
68615.6 3516.52