# vtk DataFile Version 2.0
Radiative paths
ASCII
DATASET POLYDATA
POINTS 299 float
0.407922 1.171624 0.324029
0.407922 0.001189 0.324029
-0.017740 1.500000 0.040254
0.302571 1.171505 -0.127715
0.302571 0.001070 -0.127715
0.018773 1.500000 0.014184
-0.312176 1.175340 -0.190406
-0.312176 0.004904 -0.190406
-0.029105 1.500000 -0.048870
0.709396 1.170300 -0.061854
0.709396 -0.000136 -0.061854
-0.000669 1.500000 -0.061854
-0.431690 1.168161 0.075831
-0.431690 -0.002274 0.075831
-0.005044 1.500000 -0.066384
0.568902 1.173287 -0.313615
0.568902 0.002852 -0.313615
0.001982 1.500000 -0.030155
0.598492 1.172788 -0.402790
0.598492 0.002352 -0.402790
0.031383 1.500000 0.022542
-0.726100 1.174053 0.059918
-0.726100 0.003618 0.059918
-0.017812 1.500000 0.059918
-0.554545 1.168643 0.156566
-0.554545 -0.001792 0.156566
0.014134 1.500000 0.014397
-0.536416 1.167052 0.194240
-0.536416 -0.003383 0.194240
0.032865 1.500000 0.051920
0.357562 1.157584 -0.247063
0.357562 -0.012851 -0.247063
0.353140 0.002721 -0.244115
0.250063 -1.163165 -0.245899
0.708814 1.173415 0.450455
0.708814 0.002980 0.450455
0.000225 1.500000 0.025301
0.435365 1.166208 -0.385708
0.435365 -0.004228 -0.385708
0.008165 1.500000 0.041493
0.160211 1.171295 -0.018275
0.160211 0.000860 -0.018275
0.018292 1.500000 -0.018275
0.596540 1.174962 0.276791
0.596540 0.004527 0.276791
0.030254 1.500000 -0.006352
0.387619 1.161774 -0.401019
0.387619 -0.008661 -0.401019
-0.040841 1.500000 0.027441
0.635128 1.181299 -0.269433
0.635128 0.010864 -0.269433
0.071241 1.500000 0.012510
-0.148162 1.172599 -0.304029
-0.148162 0.002164 -0.304029
-0.006367 1.500000 -0.020438
0.550801 1.158158 -0.357870
0.550801 -0.012278 -0.357870
-0.021848 1.500000 0.071617
0.562325 1.169397 -0.018049
0.562325 -0.001038 -0.018049
-0.006068 1.500000 -0.018049
-0.240216 1.163461 0.080580
-0.240216 -0.006975 0.080580
0.045105 1.500000 -0.062080
0.184962 1.178192 -0.345360
0.184962 0.007756 -0.345360
0.043696 1.500000 -0.062828
0.777144 1.183207 -0.259316
0.777144 0.012772 -0.259316
0.073190 1.500000 0.022265
0.231526 1.165512 0.038406
0.231526 -0.004924 0.038406
-0.053406 1.500000 0.038406
-0.082918 1.168674 0.163707
-0.082918 -0.001761 0.163707
0.059249 1.500000 0.021540
-0.676774 1.160360 -0.405378
-0.676774 -0.010075 -0.405378
0.037995 1.500000 0.023484
0.221165 1.164539 -0.025236
0.221165 -0.005896 -0.025236
-0.063951 1.500000 -0.025236
0.093558 1.165596 0.407319
0.093558 -0.004839 0.407319
-0.048900 1.500000 -0.020055
0.115593 1.169529 0.149173
0.115593 -0.000906 0.149173
-0.026493 1.500000 0.007087
0.122870 1.169532 -0.039185
0.122870 -0.000903 -0.039185
-0.515531 1.160068 0.419067
-0.515531 -0.010367 0.419067
0.056394 1.500000 -0.009877
-0.746475 1.183929 0.344078
-0.746475 0.013494 0.344078
-0.042862 1.500000 0.062632
0.315136 1.173357 0.016572
0.315136 0.002922 0.016572
0.031689 1.500000 0.016572
-0.185290 1.174499 -0.184947
-0.185290 0.004064 -0.184947
-0.043675 1.500000 -0.043332
0.581899 1.177435 0.333321
0.581899 0.007000 0.333321
0.016549 1.500000 0.050647
0.602911 1.175426 -0.269159
0.602911 0.004990 -0.269159
0.036800 1.500000 0.013896
0.232064 1.167127 0.436667
0.232064 -0.003308 0.436667
-0.052562 1.500000 0.009728
0.022567 1.175230 -0.460434
0.022567 0.004795 -0.460434
0.022567 1.500000 -0.035796
-0.155699 1.171082 0.039774
-0.155699 0.000647 0.039774
-0.013760 1.500000 0.039774
0.272697 1.172392 0.206400
0.272697 0.001957 0.206400
-0.010933 1.500000 0.064585
-0.069623 1.170435 -0.020261
-0.069623 -0.000000 -0.020261
0.256267 1.171362 -0.321698
0.256267 0.000927 -0.321698
-0.027557 1.500000 -0.037874
-0.359696 1.164163 -0.205501
-0.359696 -0.006272 -0.205501
0.068085 1.500000 -0.062907
0.079010 1.168944 -0.299566
0.079010 -0.001491 -0.299566
-0.063131 1.500000 -0.015284
-0.483200 1.178400 -0.020468
-0.483200 0.007965 -0.020468
-0.059462 1.500000 -0.020468
-0.099883 1.171307 0.446309
-0.099883 0.000871 0.446309
0.042035 1.500000 0.020556
0.357996 1.154870 -0.216929
0.357996 -0.015565 -0.216929
-0.072424 1.500000 0.070018
0.087374 1.172260 0.330799
0.087374 0.001824 0.330799
-0.054453 1.500000 0.047144
-0.371859 1.158443 0.234943
-0.371859 -0.011992 0.234943
0.057547 1.500000 -0.051328
0.087819 1.167118 -0.125775
0.087819 -0.003318 -0.125775
-0.054495 1.500000 0.016539
0.089498 1.169155 -0.167330
0.089498 -0.001280 -0.167330
-0.052624 1.500000 -0.025208
0.194829 1.172930 -0.038739
0.194829 0.002495 -0.038739
0.053065 1.500000 -0.038739
0.388818 1.159361 0.219477
0.388818 -0.011074 0.219477
-0.040327 1.500000 -0.066620
-0.275841 1.171798 0.187419
-0.275841 0.001362 0.187419
0.007902 1.500000 0.045548
-0.623174 1.180532 0.026485
-0.623174 0.010096 0.026485
-0.058997 1.500000 0.026485
-0.332232 1.169810 -0.389314
-0.332232 -0.000626 -0.389314
-0.048114 1.500000 0.036863
-0.337175 1.175701 -0.148127
-0.337175 0.005266 -0.148127
-0.054172 1.500000 -0.006626
-0.524392 1.162455 0.015077
-0.524392 -0.007980 0.015077
0.046629 1.500000 0.015077
0.248043 1.173153 -0.349168
0.248043 0.002717 -0.349168
-0.035442 1.500000 -0.065683
-0.309400 1.170044 0.082836
-0.309400 -0.000392 0.082836
-0.025326 1.500000 -0.059201
0.686327 1.165621 0.289208
0.686327 -0.004815 0.289208
-0.025952 1.500000 0.004296
-0.013647 1.171758 0.170009
-0.013647 0.001323 0.170009
-0.013647 1.500000 0.028134
0.099067 1.169050 -0.155542
0.099067 -0.001385 -0.155542
-0.043064 1.500000 -0.013411
0.260858 1.167683 -0.129497
0.260858 -0.002752 -0.129497
-0.023663 1.500000 0.012764
0.619168 1.179799 -0.056555
0.619168 0.009363 -0.056555
0.054714 1.500000 -0.056555
0.739126 1.173032 -0.240295
0.739126 0.002597 -0.240295
0.030355 1.500000 0.043214
0.400011 1.169833 -0.206962
0.400011 -0.000602 -0.206962
-0.026161 1.500000 -0.064905
0.490426 1.175843 -0.401136
0.490426 0.005408 -0.401136
0.065961 1.500000 0.023329
0.087457 1.170339 -0.194491
0.087457 -0.000097 -0.194491
-0.054552 1.500000 -0.052482
-0.366500 1.161972 0.137773
-0.366500 -0.008463 0.137773
0.061904 1.500000 -0.005028
-0.566455 1.170941 -0.159250
-0.566455 0.000505 -0.159250
0.001354 1.500000 -0.017298
-0.713881 1.177307 -0.471362
-0.713881 0.006871 -0.471362
-0.007133 1.500000 -0.047314
0.702767 1.168810 0.057924
0.702767 -0.001625 0.057924
-0.008002 1.500000 0.057924
-0.526657 1.160032 -0.079500
-0.526657 -0.010404 -0.079500
0.045282 1.500000 0.063485
0.307879 1.171235 -0.111316
0.307879 0.000799 -0.111316
0.024031 1.500000 0.030608
0.460618 1.175256 0.069939
0.460618 0.004820 0.069939
0.035987 1.500000 0.069939
-0.319697 1.175545 -0.179742
-0.319697 0.005109 -0.179742
-0.036664 1.500000 -0.038226
0.700403 1.166546 0.103270
0.700403 -0.003890 0.103270
-0.011438 1.500000 -0.039098
-0.589766 1.179426 0.339520
-0.589766 0.008991 0.339520
-0.025171 1.500000 0.057222
0.148587 1.171975 0.434886
0.148587 0.001540 0.434886
0.006733 1.500000 0.009323
0.630889 1.187693 -0.348357
0.630889 0.017258 -0.348357
0.069424 1.500000 -0.067625
-0.684032 1.163951 -0.127287
-0.684032 -0.006484 -0.127287
0.029038 1.500000 0.015327
0.169151 1.172730 0.433461
0.169151 0.002294 0.433461
0.027369 1.500000 0.008112
-0.645122 1.156761 -0.430981
-0.645122 -0.013675 -0.430981
-0.633236 0.011438 -0.423849
-0.542200 -1.155443 -0.428326
-0.243181 1.163285 0.247957
-0.243181 -0.007150 0.247957
0.042172 1.500000 -0.037396
0.138584 1.167115 0.074949
0.138584 -0.003321 0.074949
-0.003731 1.500000 -0.067366
0.220203 1.170883 -0.471775
0.220203 0.000448 -0.471775
-0.063712 1.500000 -0.045902
-0.569248 1.170664 -0.007477
-0.569248 0.000228 -0.007477
-0.001334 1.500000 -0.007477
0.507893 1.159217 0.136706
0.507893 -0.011219 0.136706
-0.064355 1.500000 -0.006356
0.086411 1.169448 -0.176632
0.086411 -0.000988 -0.176632
-0.055683 1.500000 -0.034538
-0.474638 1.174747 -0.257877
-0.474638 0.004311 -0.257877
-0.049862 1.500000 0.025307
0.103716 1.165531 0.076217
0.103716 -0.004904 0.076217
0.000016 1.176134 -0.344732
0.000016 0.005699 -0.344732
0.000016 1.500000 -0.061811
0.476189 1.172480 0.390769
0.476189 0.002045 0.390769
0.050770 1.500000 -0.034651
0.723417 1.168320 -0.387683
0.723417 -0.002115 -0.387683
0.012416 1.500000 0.038918
-0.756972 1.183922 0.207804
-0.756972 0.013487 0.207804
-0.053356 1.500000 0.067081
0.209939 1.173840 -0.286392
0.209939 0.003405 -0.286392
0.068261 1.500000 -0.003037
0.744961 1.178292 0.028442
0.744961 0.007856 0.028442
0.038679 1.500000 0.028442
0.592077 1.172004 0.253123
0.592077 0.001568 0.253123
0.024670 1.500000 -0.030580
-0.411607 1.170007 0.300937
-0.411607 -0.000428 0.300937
0.014515 1.500000 0.016856
LINES 100 399
3 0 1 2
3 3 4 5
3 6 7 8
3 9 10 11
3 12 13 14
3 15 16 17
3 18 19 20
3 21 22 23
3 24 25 26
3 27 28 29
4 30 31 32 33
3 34 35 36
3 37 38 39
3 40 41 42
3 43 44 45
3 46 47 48
3 49 50 51
3 52 53 54
3 55 56 57
3 58 59 60
3 61 62 63
3 64 65 66
3 67 68 69
3 70 71 72
3 73 74 75
3 76 77 78
3 79 80 81
3 82 83 84
3 85 86 87
2 88 89
3 90 91 92
3 93 94 95
3 96 97 98
3 99 100 101
3 102 103 104
3 105 106 107
3 108 109 110
3 111 112 113
3 114 115 116
3 117 118 119
2 120 121
3 122 123 124
3 125 126 127
3 128 129 130
3 131 132 133
3 134 135 136
3 137 138 139
3 140 141 142
3 143 144 145
3 146 147 148
3 149 150 151
3 152 153 154
3 155 156 157
3 158 159 160
3 161 162 163
3 164 165 166
3 167 168 169
3 170 171 172
3 173 174 175
3 176 177 178
3 179 180 181
3 182 183 184
3 185 186 187
3 188 189 190
3 191 192 193
3 194 195 196
3 197 198 199
3 200 201 202
3 203 204 205
3 206 207 208
3 209 210 211
3 212 213 214
3 215 216 217
3 218 219 220
3 221 222 223
3 224 225 226
3 227 228 229
3 230 231 232
3 233 234 235
3 236 237 238
3 239 240 241
3 242 243 244
3 245 246 247
4 248 249 250 251
3 252 253 254
3 255 256 257
3 258 259 260
3 261 262 263
3 264 265 266
3 267 268 269
3 270 271 272
2 273 274
3 275 276 277
3 278 279 280
3 281 282 283
3 284 285 286
3 287 288 289
3 290 291 292
3 293 294 295
3 296 297 298
CELL_DATA 100
SCALARS Radiative_path_type float 1
LOOKUP_TABLE path_type
0.5
0.5
0.5
0.5
0.5
0.5
0.5
0.5
0.5
0.5
0.75
0.5
0.5
0.5
0.5
0.5
0.5
0.5
0.5
0.5
0.5
0.5
0.5
0.5
0.5
0.5
0.5
0.5
0.5
1.0
0.5
0.5
0.5
0.5
0.5
0.5
0.5
0.5
0.5
0.5
1.0
0.5
0.5
0.5
0.5
0.5
0.5
0.5
0.5
0.5
0.5
0.5
0.5
0.5
0.5
0.5
0.5
0.5
0.5
0.5
0.5
0.5
0.5
0.5
0.5
0.5
0.5
0.5
0.5
0.5
0.5
0.5
0.5
0.5
0.5
0.5
0.5
0.5
0.5
0.5
0.5
0.5
0.5
0.75
0.5
0.5
0.5
0.5
0.5
0.5
0.5
1.0
0.5
0.5
0.5
0.5
0.5
0.5
0.5
0.5
LOOKUP_TABLE path_type 5
1.0 0.0 0.0 1.0
0.0 1.0 0.0 1.0
0.0 0.0 1.0 1.0
0.0 1.0 1.0 1.0
1.0 1.0 0.0 1.0
