# vtk DataFile Version 2.0
Radiative paths
ASCII
DATASET POLYDATA
POINTS 283 float
1.233542 0.832216 0.323976
0.409920 0.008595 0.323976
-0.013639 1.500000 0.041603
1.125157 0.817407 -0.127719
0.301536 -0.006215 -0.127719
0.016359 1.500000 0.014869
0.515524 0.839039 -0.190402
-0.308098 0.015418 -0.190402
-0.027017 1.500000 -0.049861
1.533011 0.823727 -0.061854
0.709390 0.000106 -0.061854
-0.000560 1.500000 -0.061854
0.391459 0.823642 0.075834
-0.432163 0.000020 0.075834
-0.006168 1.500000 -0.066164
1.393651 0.826342 -0.313572
0.570030 0.002720 -0.313572
0.003060 1.500000 -0.030087
1.420503 0.813394 -0.402864
0.596881 -0.010227 -0.402864
0.025009 1.500000 0.026041
0.100132 0.833125 0.059918
-0.723490 0.009504 0.059918
-0.017988 1.500000 0.059918
0.267363 0.816811 0.156566
-0.556258 -0.006810 0.156566
0.014321 1.500000 0.013922
0.283503 0.808399 0.194239
-0.540118 -0.015222 0.194239
0.033646 1.500000 0.050798
1.181401 0.837709 -0.247111
0.357780 0.014087 -0.247111
-0.064219 1.500000 0.034221
0.503922 0.843731 0.163997
-0.319700 0.020110 0.163997
-0.039507 1.500000 0.023901
0.373302 0.846854 0.480570
-0.450319 0.023233 0.480570
-0.030917 1.500000 0.061168
0.430349 0.807574 -0.200727
-0.393273 -0.016047 -0.200727
1.419673 0.816675 0.276801
0.596052 -0.006947 0.276801
0.025422 1.500000 -0.008514
1.210774 0.830145 -0.401090
0.387152 0.006524 -0.401090
-0.036995 1.500000 0.023057
1.457693 0.807518 -0.269454
0.634071 -0.016104 -0.269454
1.301519 0.804684 -0.395861
0.477898 -0.018937 -0.395861
0.104728 0.826203 -0.402315
-0.718894 0.002581 -0.402315
-0.010115 1.500000 0.022952
1.143166 0.814228 -0.438028
0.319544 -0.009393 -0.438028
0.033766 1.500000 -0.009360
1.431577 0.814792 0.138485
0.607956 -0.008830 0.138485
0.036613 1.500000 -0.004351
0.960725 0.824565 0.127078
0.137104 0.000944 0.127078
-0.004807 1.500000 -0.014833
1.051018 0.832811 -0.371354
0.227397 0.009189 -0.371354
-0.054863 1.500000 0.052036
0.636093 0.841253 0.247871
-0.187528 0.017632 0.247871
-0.047197 1.500000 -0.032791
0.828555 0.820810 0.128229
0.004934 -0.002811 0.128229
0.004934 1.500000 -0.014038
1.210125 0.830075 0.399563
0.386503 0.006454 0.399563
-0.037664 1.500000 -0.024605
0.873476 0.802971 -0.059830
0.049854 -0.020650 -0.059830
0.679994 0.831108 0.345094
-0.143627 0.007486 0.345094
-0.002336 1.500000 0.062511
1.575430 0.816167 -0.284118
0.751809 -0.007455 -0.284118
0.038280 1.500000 0.001293
0.244023 0.828973 -0.102056
-0.579598 0.005352 -0.102056
-0.013625 1.500000 0.039437
0.350065 0.854216 -0.307318
-0.473557 0.030595 -0.307318
-0.056246 1.500000 -0.029111
0.501251 0.845064 -0.293439
-0.322370 0.021443 -0.293439
-0.042430 1.500000 -0.013499
0.426620 0.807452 0.292723
-0.397001 -0.016170 0.292723
0.033591 1.500000 0.005661
1.378616 0.826361 0.282847
0.554995 0.002740 0.282847
-0.011968 1.500000 -0.000635
0.400516 0.825623 -0.318232
-0.423105 0.002001 -0.318232
0.002326 1.500000 -0.034611
0.302408 0.792353 0.123279
-0.521213 -0.031268 0.123279
0.785964 0.840351 -0.292814
-0.037657 0.016730 -0.292814
-0.037657 1.500000 -0.011981
1.561126 0.815514 0.253736
0.737504 -0.008107 0.253736
0.023667 1.500000 -0.031799
1.523146 0.821801 0.402082
0.699524 -0.001820 0.402082
-0.011337 1.500000 -0.024435
1.067576 0.835971 -0.001780
0.243954 0.012350 -0.001780
-0.037707 1.500000 -0.001780
0.201401 0.859734 -0.292860
-0.622220 0.036113 -0.292860
-0.067895 1.500000 -0.015698
1.237119 0.828157 0.165295
0.413497 0.004535 0.165295
-0.011215 1.500000 0.023724
1.500858 0.826509 -0.255917
0.677237 0.002887 -0.255917
-0.031396 1.500000 0.027536
0.920812 0.846434 0.342921
0.097191 0.022812 0.342921
-0.042650 1.500000 0.063240
0.924243 0.841738 -0.199443
0.100621 0.018116 -0.199443
-0.039664 1.500000 -0.059158
0.680318 0.826071 -0.300659
-0.143303 0.002449 -0.300659
-0.001535 1.500000 -0.017122
0.254997 0.823116 -0.275502
-0.568624 -0.000505 -0.275502
-0.000433 1.500000 0.008594
1.222485 0.819944 -0.357511
0.398864 -0.003677 -0.357511
0.393265 0.016037 -0.351912
-0.419744 -0.812033 -0.251812
0.486479 0.843878 0.375382
-0.337143 0.020257 0.375382
-0.056978 1.500000 -0.044865
1.553023 0.813933 -0.225039
0.729401 -0.009689 -0.225039
0.014815 1.500000 0.060795
0.507766 0.839252 0.417120
-0.315855 0.015631 0.417120
-0.034814 1.500000 -0.004441
1.538191 0.825908 0.313396
0.714569 0.002287 0.313396
0.005652 1.500000 0.029829
0.443399 0.795043 -0.269601
-0.380222 -0.028578 -0.269601
0.712149 0.809254 -0.067594
-0.111472 -0.014368 -0.067594
0.031888 1.500000 -0.067594
1.356888 0.832624 0.433135
0.533267 0.009003 0.433135
-0.031324 1.500000 0.009692
0.652422 0.837706 0.147670
-0.171200 0.014084 0.147670
-0.030533 1.500000 0.007003
1.049119 0.842877 -0.429551
0.225497 0.019256 -0.429551
-0.054857 1.500000 -0.009019
0.990717 0.820055 0.334808
0.167096 -0.003566 0.334808
0.024758 1.500000 0.050133
0.441905 0.796991 -0.131187
-0.381716 -0.026631 -0.131187
0.292856 0.799561 0.015077
-0.530766 -0.024060 0.015077
0.539148 0.817035 0.383918
-0.284474 -0.006587 0.383918
0.000773 1.500000 -0.043953
0.340011 0.856268 -0.119390
-0.483611 0.032647 -0.119390
-0.066882 1.500000 0.019519
0.717770 0.807935 -0.297337
-0.105852 -0.015686 -0.297337
0.071069 0.853997 0.287014
-0.752552 0.030376 0.287014
-0.056930 1.500000 0.008765
1.009364 0.807581 -0.137581
0.185743 -0.016041 -0.137581
0.871288 0.803877 -0.001419
0.047667 -0.019744 -0.001419
0.269641 0.812778 -0.109003
-0.553980 -0.010843 -0.109003
0.018126 1.500000 0.034024
1.086029 0.830280 0.062402
0.262407 0.006659 0.062402
-0.020332 1.500000 0.062402
1.446465 0.813556 0.302752
0.622844 -0.010066 0.302752
1.561365 0.814060 -0.240364
0.737744 -0.009561 -0.240364
0.023219 1.500000 0.045446
1.225500 0.833460 -0.206940
0.401879 0.009839 -0.206940
-0.021327 1.500000 -0.065871
1.310924 0.802995 -0.401207
0.487302 -0.020627 -0.401207
1.573791 0.816658 -0.023534
0.750169 -0.006964 -0.023534
0.036873 1.500000 -0.023534
0.882291 0.800792 0.299652
0.058670 -0.022830 0.299652
0.163378 0.788567 0.037507
-0.660243 -0.035054 0.037507
0.350973 0.851020 0.042432
-0.472649 0.027398 0.042432
-0.054430 1.500000 0.042432
1.207437 0.831881 -0.091289
0.383816 0.008259 -0.091289
-0.039839 1.500000 0.049930
0.488170 0.851717 -0.157566
-0.335451 0.028096 -0.157566
-0.056771 1.500000 -0.018226
1.342435 0.830659 -0.248600
0.518814 0.007037 -0.248600
-0.046522 1.500000 0.034067
0.420180 0.807676 -0.410157
-0.403442 -0.015945 -0.410157
0.027087 1.500000 0.020371
0.337630 0.859457 0.152237
-0.485991 0.035836 0.152237
-0.070169 1.500000 0.013630
1.465780 0.835358 -0.139842
0.642159 0.011736 -0.139842
-0.062286 1.500000 0.001047
0.387555 0.834982 -0.334011
-0.436066 0.011360 -0.334011
-0.013292 1.500000 -0.052162
0.206215 0.855547 0.050173
-0.617406 0.031926 0.050173
-0.061495 1.500000 0.050173
1.576590 0.818485 0.186681
0.752968 -0.005137 0.186681
0.040537 1.500000 0.044195
0.165772 0.786881 0.042912
-0.657849 -0.036741 0.042912
0.060017 0.861386 -0.061530
-0.763604 0.037764 -0.061530
-0.071479 1.500000 -0.061530
0.913626 0.837412 -0.392595
0.090005 0.013790 -0.392595
-0.050690 1.500000 0.029488
0.620715 0.845872 -0.383579
-0.202907 0.022251 -0.383579
-0.063013 1.500000 0.036101
0.546198 0.820542 -0.428745
-0.277423 -0.003079 -0.428745
0.007160 1.500000 -0.001871
0.792290 0.833033 -0.076954
-0.031332 0.009412 -0.076954
-0.031332 1.500000 0.064155
1.172718 0.802388 -0.122400
0.349097 -0.021234 -0.122400
0.102031 0.825706 0.226191
-0.721590 0.002085 0.226191
-0.012577 1.500000 -0.057414
0.119005 0.818001 -0.107592
-0.704616 -0.005620 -0.107592
0.008044 1.500000 0.034940
0.152391 0.798128 0.301929
-0.671231 -0.025493 0.301929
0.913962 0.844189 -0.176623
0.090341 0.020568 -0.176623
-0.049712 1.500000 -0.036571
0.354382 0.846311 -0.257882
-0.469240 0.022689 -0.257882
-0.049683 1.500000 0.021822
0.928275 0.833474 0.076232
0.104654 0.009853 0.076232
-0.036413 1.500000 -0.064835
0.534018 0.826057 -0.279013
-0.289603 0.002436 -0.279013
-0.006065 1.500000 0.004526
0.558009 0.817068 -0.313526
-0.265613 -0.006554 -0.313526
0.019628 1.500000 -0.028285
LINES 100 383
3 0 1 2
3 3 4 5
3 6 7 8
3 9 10 11
3 12 13 14
3 15 16 17
3 18 19 20
3 21 22 23
3 24 25 26
3 27 28 29
3 30 31 32
3 33 34 35
3 36 37 38
2 39 40
3 41 42 43
3 44 45 46
2 47 48
2 49 50
3 51 52 53
3 54 55 56
3 57 58 59
3 60 61 62
3 63 64 65
3 66 67 68
3 69 70 71
3 72 73 74
2 75 76
3 77 78 79
3 80 81 82
3 83 84 85
3 86 87 88
3 89 90 91
3 92 93 94
3 95 96 97
3 98 99 100
2 101 102
3 103 104 105
3 106 107 108
3 109 110 111
3 112 113 114
3 115 116 117
3 118 119 120
3 121 122 123
3 124 125 126
3 127 128 129
3 130 131 132
3 133 134 135
4 136 137 138 139
3 140 141 142
3 143 144 145
3 146 147 148
3 149 150 151
2 152 153
3 154 155 156
3 157 158 159
3 160 161 162
3 163 164 165
3 166 167 168
2 169 170
2 171 172
3 173 174 175
3 176 177 178
2 179 180
3 181 182 183
2 184 185
2 186 187
3 188 189 190
3 191 192 193
2 194 195
3 196 197 198
3 199 200 201
2 202 203
3 204 205 206
2 207 208
2 209 210
3 211 212 213
3 214 215 216
3 217 218 219
3 220 221 222
3 223 224 225
3 226 227 228
3 229 230 231
3 232 233 234
3 235 236 237
3 238 239 240
2 241 242
3 243 244 245
3 246 247 248
3 249 250 251
3 252 253 254
3 255 256 257
2 258 259
3 260 261 262
3 263 264 265
2 266 267
3 268 269 270
3 271 272 273
3 274 275 276
3 277 278 279
3 280 281 282
CELL_DATA 100
SCALARS Radiative_path_type float 1
LOOKUP_TABLE path_type
0.5
0.5
0.5
0.5
0.5
0.5
0.5
0.5
0.5
0.5
0.5
0.5
0.5
1.0
0.5
0.5
1.0
1.0
0.5
0.5
0.5
0.5
0.5
0.5
0.5
0.5
1.0
0.5
0.5
0.5
0.5
0.5
0.5
0.5
0.5
1.0
0.5
0.5
0.5
0.5
0.5
0.5
0.5
0.5
0.5
0.5
0.5
0.75
0.5
0.5
0.5
0.5
1.0
0.5
0.5
0.5
0.5
0.5
1.0
1.0
0.5
0.5
1.0
0.5
1.0
1.0
0.5
0.5
1.0
0.5
0.5
1.0
0.5
1.0
1.0
0.5
0.5
0.5
0.5
0.5
0.5
0.5
0.5
0.5
0.5
1.0
0.5
0.5
0.5
0.5
0.5
1.0
0.5
0.5
1.0
0.5
0.5
0.5
0.5
0.5
LOOKUP_TABLE path_type 5
1.0 0.0 0.0 1.0
0.0 1.0 0.0 1.0
0.0 0.0 1.0 1.0
0.0 1.0 1.0 1.0
1.0 1.0 0.0 1.0
