# vtk DataFile Version 2.0
Radiative paths
ASCII
DATASET POLYDATA
POINTS 366 float
-0.414802 0.817818 0.324021
0.408820 -0.005803 0.324021
-0.015988 1.490000 0.040815
-0.018828 1.500000 0.038922
-1.452162 0.803233 0.384093
-0.628541 -0.020389 0.384093
-0.587951 0.794869 0.084398
0.235671 -0.028753 0.084398
-1.196825 0.831346 -0.226130
-0.373204 0.007725 -0.226130
0.047762 1.490000 0.054514
0.050602 1.500000 0.056407
-0.448032 0.797162 -0.314382
0.375590 -0.026459 -0.314382
-0.645477 0.833308 -0.216094
0.178144 0.009687 -0.216094
0.038008 1.490000 0.064179
0.037061 1.500000 0.066072
-0.903315 0.846048 -0.054522
-0.079693 0.022427 -0.054522
0.059237 1.490000 -0.054522
0.060184 1.500000 -0.054522
-1.137197 0.814500 -0.049474
-0.313576 -0.009121 -0.049474
-0.029743 1.490000 -0.049474
-0.027849 1.500000 -0.049474
-0.211316 0.849304 -0.086763
0.612305 0.025683 -0.086763
0.057817 1.490000 0.051859
0.054030 1.500000 0.052805
-1.361239 0.833002 0.194220
-0.537618 0.009380 0.194220
0.023043 1.490000 0.054055
0.026830 1.500000 0.053109
-0.561465 0.812075 -0.025316
0.262156 -0.011546 -0.025316
-0.022137 1.490000 -0.025316
-0.024030 1.500000 -0.025316
-1.564346 0.818861 0.290886
-0.740725 -0.004761 0.290886
-0.033205 1.490000 0.007878
-0.028472 1.500000 0.005985
-0.664029 0.829096 0.407920
0.159593 0.005475 0.407920
0.019057 1.490000 -0.013685
0.019057 1.490000 -0.013685
0.018111 1.500000 -0.016525
-1.519773 0.833371 -0.352935
-0.696152 0.009750 -0.352935
0.004500 1.490000 -0.072674
0.009233 1.500000 -0.070781
-0.286961 0.798275 -0.237109
0.536661 -0.025347 -0.237109
-1.185365 0.840326 0.046941
-0.361743 0.016705 0.046941
0.056672 1.490000 0.046941
0.059512 1.500000 0.046941
-1.593279 0.814965 -0.302938
-0.769658 -0.008656 -0.302938
-0.060294 1.490000 -0.019192
-0.055561 1.500000 -0.017299
-0.641396 0.842553 0.029199
0.182225 0.018932 0.029199
0.042964 1.490000 0.029199
0.042017 1.500000 0.029199
-1.098644 0.821852 -0.242083
-0.275023 -0.001769 -0.242083
0.007419 1.490000 0.040358
0.009312 1.500000 0.042252
-0.645133 0.847675 -0.345326
0.178489 0.024053 -0.345326
0.039713 1.490000 -0.067774
0.038766 1.500000 -0.065880
-1.439226 0.813390 -0.036307
-0.615604 -0.010232 -0.036307
-0.047517 1.490000 -0.036307
-0.043730 1.500000 -0.036307
-0.357554 0.848371 0.431977
0.466068 0.024749 0.431977
0.049936 1.490000 0.015846
0.047096 1.500000 0.013006
-0.538883 0.820352 0.075388
0.284738 -0.003269 0.075388
0.002013 1.490000 -0.065975
0.000119 1.500000 -0.066921
-1.396196 0.822638 0.061394
-0.572575 -0.000983 0.061394
-0.007989 1.490000 0.061394
-0.004202 1.500000 0.061394
-0.581205 0.798298 0.407331
0.242417 -0.025324 0.407331
-0.290840 0.801249 -0.429565
0.532782 -0.022373 -0.429565
-1.354696 0.832365 0.428390
-0.531075 0.008743 0.428390
0.029827 1.490000 0.007713
0.033614 1.500000 0.004873
-1.056789 0.839079 -0.136866
-0.233168 0.015458 -0.136866
0.046012 1.490000 0.002724
0.047906 1.500000 0.003671
-1.572655 0.822981 0.343982
-0.749033 -0.000640 0.343982
-0.043464 1.490000 0.061754
-0.038730 1.500000 0.059861
-0.551393 0.817453 -0.143158
0.272228 -0.006169 -0.143158
-0.011046 1.490000 -0.001521
-0.012939 1.500000 -0.000574
-1.145181 0.815143 0.447618
-0.321560 -0.008478 0.447618
-0.037848 1.490000 0.022051
-0.035955 1.500000 0.019211
-0.544833 0.821707 -0.431407
0.278788 -0.001914 -0.431407
-0.003681 1.490000 -0.007704
-0.005574 1.500000 -0.004864
-0.795609 0.830564 0.395913
0.028012 0.006943 0.395913
0.028012 1.490000 -0.025275
0.028012 1.500000 -0.028115
-0.521266 0.837168 -0.318605
0.302355 0.013547 -0.318605
0.022813 1.490000 -0.039064
0.020920 1.500000 -0.037170
-0.434403 0.802158 -0.428307
0.389219 -0.021463 -0.428307
-1.597922 0.813109 -0.434792
-0.774301 -0.010512 -0.434792
-0.064059 1.490000 -0.008646
-0.059326 1.500000 -0.005806
-0.743664 0.791967 0.263838
0.079957 -0.031655 0.263838
-0.992180 0.816119 -0.179809
-0.168559 -0.007502 -0.179809
-0.026795 1.490000 -0.038045
-0.025849 1.500000 -0.037098
-1.296286 0.804867 -0.225088
-0.472665 -0.018755 -0.225088
-1.344094 0.833836 -0.013543
-0.520472 0.010215 -0.013543
0.039873 1.490000 -0.013543
0.039873 1.490000 -0.013543
0.043660 1.500000 -0.013543
-0.968303 0.824474 -0.300652
-0.144682 0.000852 -0.300652
-0.003709 1.490000 -0.018707
-0.002762 1.500000 -0.016813
-0.123211 0.817821 0.293225
0.700410 -0.005800 0.293225
-0.007602 1.490000 0.010021
-0.012336 1.500000 0.008127
-1.208686 0.830740 -0.076332
-0.385064 0.007119 -0.076332
0.036074 1.490000 0.064047
0.036074 1.490000 0.064047
0.038914 1.500000 0.064994
-0.206849 0.849998 0.234937
0.616773 0.026377 0.234937
0.062547 1.490000 -0.042176
0.058761 1.500000 -0.044069
-1.240041 0.827163 -0.431851
-0.416419 0.003542 -0.431851
0.005735 1.490000 -0.009697
0.008575 1.500000 -0.006857
-0.646315 0.842095 -0.174979
0.177307 0.018474 -0.174979
0.038002 1.490000 -0.035675
0.037056 1.500000 -0.034728
-0.580969 0.812109 0.491519
0.242652 -0.011513 0.491519
-1.120705 0.822546 -0.445086
-0.297083 -0.001075 -0.445086
-0.014773 1.490000 -0.021620
-0.012880 1.500000 -0.018780
-0.996212 0.812888 0.147669
-0.172591 -0.010734 0.147669
-0.030521 1.490000 0.005599
-0.029574 1.500000 0.004653
-0.563876 0.808502 0.100541
0.259746 -0.015119 0.100541
-0.025224 1.490000 -0.041944
-0.027117 1.500000 -0.042890
-1.123446 0.818394 0.424921
-0.299824 -0.005228 0.424921
-0.016728 1.490000 0.000276
-0.014835 1.500000 -0.002564
-0.218767 0.848269 0.157061
0.604855 0.024647 0.157061
0.049975 1.490000 0.018341
0.046188 1.500000 0.017394
-0.703698 0.809589 0.251639
0.119923 -0.014032 0.251639
-0.022459 1.490000 -0.033125
-0.023405 1.500000 -0.035018
-0.505293 0.841767 -0.014824
0.318328 0.018146 -0.014824
0.039657 1.490000 -0.014824
0.037764 1.500000 -0.014824
-0.353962 0.840627 0.370704
0.469659 0.017006 0.370704
0.051329 1.490000 -0.047626
0.048489 1.500000 -0.050466
-0.634948 0.845612 0.282588
0.188673 0.021991 0.282588
0.049702 1.490000 0.004645
0.048755 1.500000 0.002752
-1.414094 0.817341 -0.271551
-0.590473 -0.006281 -0.271551
-0.023881 1.490000 0.011745
-0.020094 1.500000 0.013638
-0.814646 0.826944 0.280059
0.008976 0.003322 0.280059
0.008976 1.490000 -0.001418
0.008976 1.500000 -0.003312
-0.830860 0.818458 0.103031
-0.007239 -0.005163 0.103031
-0.007239 1.490000 -0.038511
-0.007239 1.490000 -0.038511
-0.007239 1.500000 -0.039457
-0.379260 0.834405 0.059676
0.444361 0.010784 0.059676
0.024264 1.490000 0.059676
0.021424 1.500000 0.059676
-0.732021 0.802751 -0.194484
0.091600 -0.020870 -0.194484
-0.766179 0.849384 0.299652
0.057443 0.025763 0.299652
0.057443 1.490000 0.022423
0.057443 1.500000 0.020530
-1.301981 0.810009 0.042432
-0.478359 -0.013612 0.042432
-0.676215 0.822314 -0.248760
0.147406 -0.001308 -0.248760
0.006229 1.490000 0.033595
0.005282 1.500000 0.035488
-0.119813 0.813368 -0.388663
0.703808 -0.010254 -0.388663
-0.006312 1.490000 0.037409
-0.011045 1.500000 0.040249
-0.295460 0.793988 -0.248550
0.528161 -0.029634 -0.248550
-1.586580 0.814082 -0.136574
-0.762959 -0.009539 -0.136574
-0.053177 1.490000 0.005382
-0.048444 1.500000 0.006329
-0.427928 0.804218 0.112978
0.395693 -0.019403 0.112978
-0.377655 0.839995 0.454046
0.445966 0.016373 0.454046
0.027456 1.490000 0.035536
0.024616 1.500000 0.032696
-0.075586 0.851206 -0.290797
0.748035 0.027585 -0.290797
0.055825 1.490000 -0.013913
0.051092 1.500000 -0.012020
-0.375152 0.846344 -0.484220
0.448469 0.022722 -0.484220
0.031762 1.490000 -0.067513
0.028922 1.500000 -0.064673
-0.079420 0.850103 0.186700
0.744201 0.026481 0.186700
0.051469 1.490000 0.048153
0.046736 1.500000 0.047207
-0.204266 0.863820 -0.348354
0.619355 0.040198 -0.348354
0.070364 1.490000 -0.073858
0.066577 1.500000 -0.071965
-1.151707 0.804829 0.396981
-0.328086 -0.018793 0.396981
-0.095648 0.833863 0.096198
0.727973 0.010242 0.096198
0.027555 1.490000 -0.043886
0.022821 1.500000 -0.044832
-0.621633 0.851855 -0.005023
0.201988 0.028233 -0.005023
0.063608 1.490000 -0.005023
0.062661 1.500000 -0.005023
-1.003513 0.813614 -0.208546
-0.179892 -0.010007 -0.208546
-0.037891 1.490000 -0.066546
-0.036945 1.500000 -0.065599
-1.324319 0.836348 -0.264480
-0.500697 0.012726 -0.264480
0.058697 1.490000 0.015217
0.062484 1.500000 0.017111
-0.256503 0.822649 0.134531
0.567118 -0.000972 0.134531
0.002537 1.490000 -0.006615
-0.001250 1.500000 -0.007561
-0.848376 0.819663 0.342141
-0.024754 -0.003958 0.342141
-0.024754 1.490000 0.059285
-0.024754 1.500000 0.057392
-1.297613 0.808205 0.411129
-0.473991 -0.015416 0.411129
-0.867003 0.800997 -0.400062
-0.043381 -0.022624 -0.400062
-0.530414 0.824455 0.400768
0.293208 0.000834 0.400768
0.011259 1.490000 -0.022155
0.009366 1.500000 -0.024995
-0.665326 0.827811 -0.078734
0.158296 0.004190 -0.078734
0.017639 1.490000 0.061922
0.016692 1.500000 0.062869
-1.090114 0.832332 -0.313503
-0.266492 0.008711 -0.313503
0.013965 1.490000 -0.033046
0.015859 1.500000 -0.031152
-1.478342 0.828007 0.388836
-0.654720 0.004386 0.388836
0.048470 1.490000 -0.033078
0.048470 1.490000 -0.033078
0.053204 1.500000 -0.035918
-0.620267 0.852996 -0.286391
0.203354 0.029375 -0.286391
0.065082 1.490000 -0.009846
0.064135 1.500000 -0.007953
-0.775327 0.843625 0.053835
0.048294 0.020004 0.053835
0.048294 1.490000 0.053835
0.048294 1.500000 0.053835
-0.944080 0.825343 0.228205
-0.120458 0.001722 0.228205
0.020432 1.490000 -0.053576
0.021379 1.500000 -0.055469
-1.265022 0.819094 -0.132757
-0.441401 -0.004527 -0.132757
-0.016955 1.490000 0.008725
-0.014115 1.500000 0.009671
-0.513327 0.838361 0.156882
0.310295 0.014739 0.156882
0.030978 1.490000 0.017224
0.029085 1.500000 0.016278
-0.103424 0.833053 0.305112
0.720197 0.009432 0.305112
0.019395 1.490000 0.024791
0.014661 1.500000 0.022898
-0.395430 0.818035 0.383271
0.428191 -0.005586 0.383271
0.003445 1.490000 -0.041475
0.000605 1.500000 -0.044315
-0.876128 0.800048 -0.417882
-0.052506 -0.023573 -0.417882
-0.433130 0.802072 0.129729
0.390491 -0.021549 0.129729
-0.155698 0.792835 0.419835
0.667923 -0.030787 0.419835
-0.106346 0.832113 -0.315766
0.717275 0.008492 -0.315766
0.016028 1.490000 -0.035268
0.011294 1.500000 -0.033374
-0.563003 0.811262 -0.015132
0.260618 -0.012359 -0.015132
-0.023828 1.490000 -0.015132
-0.025722 1.500000 -0.015132
-1.001556 0.819148 -0.480037
-0.177935 -0.004473 -0.480037
-0.036458 1.490000 -0.055607
-0.035511 1.500000 -0.052767
-0.957201 0.833967 -0.470240
-0.133579 0.010346 -0.470240
0.006495 1.490000 -0.050018
0.006495 1.490000 -0.050018
0.007441 1.500000 -0.047178
LINES 100 466
4 0 1 2 3
2 4 5
2 6 7
4 8 9 10 11
2 12 13
4 14 15 16 17
4 18 19 20 21
4 22 23 24 25
4 26 27 28 29
4 30 31 32 33
4 34 35 36 37
4 38 39 40 41
5 42 43 44 45 46
4 47 48 49 50
2 51 52
4 53 54 55 56
4 57 58 59 60
4 61 62 63 64
4 65 66 67 68
4 69 70 71 72
4 73 74 75 76
4 77 78 79 80
4 81 82 83 84
4 85 86 87 88
2 89 90
2 91 92
4 93 94 95 96
4 97 98 99 100
4 101 102 103 104
4 105 106 107 108
4 109 110 111 112
4 113 114 115 116
4 117 118 119 120
4 121 122 123 124
2 125 126
4 127 128 129 130
2 131 132
4 133 134 135 136
2 137 138
5 139 140 141 142 143
4 144 145 146 147
4 148 149 150 151
5 152 153 154 155 156
4 157 158 159 160
4 161 162 163 164
4 165 166 167 168
2 169 170
4 171 172 173 174
4 175 176 177 178
4 179 180 181 182
4 183 184 185 186
4 187 188 189 190
4 191 192 193 194
4 195 196 197 198
4 199 200 201 202
4 203 204 205 206
4 207 208 209 210
4 211 212 213 214
5 215 216 217 218 219
4 220 221 222 223
2 224 225
4 226 227 228 229
2 230 231
4 232 233 234 235
4 236 237 238 239
2 240 241
4 242 243 244 245
2 246 247
4 248 249 250 251
4 252 253 254 255
4 256 257 258 259
4 260 261 262 263
4 264 265 266 267
2 268 269
4 270 271 272 273
4 274 275 276 277
4 278 279 280 281
4 282 283 284 285
4 286 287 288 289
4 290 291 292 293
2 294 295
2 296 297
4 298 299 300 301
4 302 303 304 305
4 306 307 308 309
5 310 311 312 313 314
4 315 316 317 318
4 319 320 321 322
4 323 324 325 326
4 327 328 329 330
4 331 332 333 334
4 335 336 337 338
4 339 340 341 342
2 343 344
2 345 346
2 347 348
4 349 350 351 352
4 353 354 355 356
4 357 358 359 360
5 361 362 363 364 365
CELL_DATA 100
SCALARS Radiative_path_type float 1
LOOKUP_TABLE path_type
0.5
1.0
1.0
0.5
1.0
0.5
0.5
0.5
0.5
0.5
0.5
0.5
0.5
0.5
1.0
0.5
0.5
0.5
0.5
0.5
0.5
0.5
0.5
0.5
1.0
1.0
0.5
0.5
0.5
0.5
0.5
0.5
0.5
0.5
1.0
0.5
1.0
0.5
1.0
0.5
0.5
0.5
0.5
0.5
0.5
0.5
1.0
0.5
0.5
0.5
0.5
0.5
0.5
0.5
0.5
0.5
0.5
0.5
0.5
0.5
1.0
0.5
1.0
0.5
0.5
1.0
0.5
1.0
0.5
0.5
0.5
0.5
0.5
1.0
0.5
0.5
0.5
0.5
0.5
0.5
1.0
1.0
0.5
0.5
0.5
0.5
0.5
0.5
0.5
0.5
0.5
0.5
0.5
1.0
1.0
1.0
0.5
0.5
0.5
0.5
LOOKUP_TABLE path_type 5
1.0 0.0 0.0 1.0
0.0 1.0 0.0 1.0
0.0 0.0 1.0 1.0
0.0 1.0 1.0 1.0
1.0 1.0 0.0 1.0
