# vtk DataFile Version 2.0
Radiative paths
ASCII
DATASET POLYDATA
POINTS 281 float
-0.405822 0.817726 0.328916
0.417708 -0.005804 0.328916
-0.018875 1.500000 0.038898
-0.513911 0.831684 -0.122815
0.309619 0.008154 -0.122815
0.018311 1.500000 0.013540
-0.272835 0.811519 -0.327372
0.550695 -0.012011 -0.327372
-0.030824 1.500000 -0.046037
-0.105082 0.823097 -0.056954
0.718448 -0.000433 -0.056954
-0.000660 1.500000 -0.061856
-1.244855 0.818685 0.080760
-0.421325 -0.004845 0.080760
-0.002877 1.500000 -0.066615
-0.102722 0.823254 0.117196
0.720808 -0.000276 0.117196
0.001776 1.500000 -0.029731
-0.219501 0.837642 -0.397887
0.604029 0.014112 -0.397887
0.032557 1.500000 0.019251
-1.540901 0.820779 0.064818
-0.717371 -0.002752 0.064818
-0.014985 1.500000 0.059909
-1.369556 0.827205 0.161460
-0.546026 0.003675 0.161460
0.011705 1.500000 0.014920
-1.352294 0.833085 0.199115
-0.528764 0.009555 0.199115
0.026775 1.500000 0.053151
-0.446709 0.785114 -0.242164
0.376821 -0.038417 -0.242164
-0.106884 0.825806 0.455356
0.716646 0.002276 0.455356
-0.001163 1.500000 0.025109
-0.378331 0.823264 -0.380815
0.445199 -0.000266 -0.380815
0.010222 1.500000 0.040360
-0.656144 0.831314 -0.013375
0.167386 0.007784 -0.013375
0.017269 1.500000 -0.018250
-0.222074 0.838763 0.281692
0.601456 0.015233 0.281692
0.030415 1.500000 -0.004274
-0.420536 0.800500 -0.396123
0.402994 -0.023030 -0.396123
-0.138552 0.802069 0.193933
0.684978 -0.021461 0.193933
-1.176441 0.840494 0.051841
-0.352911 0.016964 0.051841
0.059471 1.500000 0.046997
-1.532566 0.818374 -0.397495
-0.709036 -0.005156 -0.397495
-0.005526 1.500000 0.025053
-0.499124 0.842462 -0.433152
0.324406 0.018932 -0.433152
0.035203 1.500000 -0.017367
-0.212240 0.845705 0.143384
0.611290 0.022175 0.143384
0.042919 1.500000 -0.001344
-0.676748 0.820720 0.131978
0.146782 -0.002810 0.131978
-0.004401 1.500000 -0.015197
-0.576871 0.789789 -0.366347
0.246659 -0.033741 -0.366347
-1.197291 0.828630 -0.378629
-0.373761 0.005100 -0.378629
0.041921 1.500000 0.041039
-0.835910 0.806152 0.380839
-0.012380 -0.017378 0.380839
-0.021383 1.500000 -0.055053
-0.780473 0.837555 -0.417667
0.043057 0.014025 -0.417667
0.034240 1.500000 -0.000504
-0.855711 0.795675 -0.357349
-0.032181 -0.027855 -0.357349
-1.124622 0.815351 -0.038181
-0.301092 -0.008179 -0.038181
-0.024492 1.500000 -0.043108
-0.211308 0.845708 0.280980
0.612222 0.022178 0.280980
0.043852 1.500000 -0.003649
-0.952585 0.824977 -0.006883
-0.129055 0.001447 -0.006883
0.003917 1.500000 -0.011778
-0.623695 0.846741 0.006928
0.199835 0.023211 0.006928
0.051270 1.500000 0.002104
-0.201880 0.852173 -0.273979
0.621650 0.028643 -0.273979
0.055766 1.500000 -0.000208
-1.183518 0.845571 -0.342367
-0.359988 0.022041 -0.342367
0.050983 1.500000 -0.067368
-0.804976 0.832900 -0.328051
0.018554 0.009370 -0.328051
0.009710 1.500000 -0.050695
-0.758116 0.847269 0.074620
0.065414 0.023739 0.074620
0.056655 1.500000 0.069797
-0.850632 0.803507 -0.234409
-0.027102 -0.020023 -0.234409
-0.609117 0.850139 -0.070198
0.214413 0.026609 -0.070198
0.066190 1.500000 0.064470
-0.388841 0.823625 0.290893
0.434690 0.000095 0.290893
-0.000183 1.500000 0.002011
-0.417007 0.814705 -0.472078
0.406523 -0.008825 -0.472078
-0.030935 1.500000 -0.048501
-0.559006 0.808389 -0.014750
0.264524 -0.015141 -0.014750
-0.031332 1.500000 -0.019699
-0.688776 0.825262 -0.480045
0.134754 0.001732 -0.480045
-0.015972 1.500000 -0.059431
-1.384298 0.823196 0.020684
-0.560768 -0.000334 0.020684
-0.001544 1.500000 0.015783
-0.155550 0.786206 -0.112779
0.667980 -0.037324 -0.112779
-0.287775 0.796819 0.019987
0.535755 -0.026711 0.019987
-1.177125 0.843644 -0.200585
-0.353595 0.020114 -0.200585
0.057912 1.500000 -0.065324
-0.730118 0.797736 -0.294660
0.093412 -0.025794 -0.294660
-0.644343 0.840191 -0.197475
0.179187 0.016661 -0.197475
0.029963 1.500000 -0.061898
-0.144902 0.792830 0.418210
0.678628 -0.030700 0.418210
-1.382683 0.822624 -0.270613
-0.559153 -0.000906 -0.270613
0.000285 1.500000 0.008656
-0.405475 0.802534 -0.352427
0.418056 -0.020997 -0.352427
0.413521 -0.005356 -0.348036
1.230728 -0.829047 -0.247494
-0.433424 0.788522 0.380258
0.390107 -0.035008 0.380258
-0.339197 0.853426 0.433135
0.484333 0.029896 0.433135
0.058101 1.500000 0.010823
-1.006983 0.794880 0.371395
-0.183453 -0.028650 0.371395
-0.721319 0.799530 -0.120876
0.102211 -0.024000 -0.120876
-0.617251 0.848880 0.129910
0.206280 0.025350 0.129910
0.057930 1.500000 -0.014508
-0.222239 0.839668 -0.142359
0.601291 0.016137 -0.142359
0.030598 1.500000 -0.006734
-0.714580 0.814089 0.496367
0.108950 -0.009441 0.496367
-1.111700 0.822389 -0.440191
-0.288170 -0.001141 -0.440191
-0.012861 1.500000 -0.018770
-0.484369 0.849947 -0.294414
0.339162 0.026417 -0.294414
0.051420 1.500000 -0.020230
-1.103765 0.821887 -0.018043
-0.280235 -0.001643 -0.018043
-0.004833 1.500000 -0.022948
-1.247699 0.827386 -0.457421
-0.424169 0.003856 -0.457421
-0.008141 1.500000 -0.037404
-0.682048 0.824880 0.341287
0.141482 0.001350 0.341287
-0.009282 1.500000 0.052647
-1.187269 0.840152 -0.300955
-0.363739 0.016622 -0.300955
0.048739 1.500000 -0.024948
-0.838563 0.813471 -0.027620
-0.015033 -0.010059 -0.027620
-0.023993 1.500000 -0.032553
-0.390607 0.822334 -0.009968
0.432923 -0.001196 -0.009968
-0.002324 1.500000 -0.014872
-1.576130 0.814517 0.291908
-0.752600 -0.009013 0.291908
-0.047287 1.500000 0.001272
-0.630457 0.843333 -0.132680
0.193074 0.019803 -0.132680
0.044166 1.500000 0.002610
-0.821772 0.825362 0.332186
0.001758 0.001832 0.332186
-0.007131 1.500000 0.043639
-1.445294 0.809883 0.000336
-0.621764 -0.013647 0.000336
-0.517937 0.836282 0.466817
0.305594 0.012752 0.466817
0.015184 1.500000 0.039580
-1.395955 0.817535 -0.402430
-0.572425 -0.005995 -0.402430
-0.011091 1.500000 0.020353
-1.571854 0.815287 0.038853
-0.748324 -0.008243 0.038853
-0.043371 1.500000 0.033926
-1.081198 0.838849 0.489859
-0.257668 0.015319 0.489859
0.014623 1.500000 0.063359
-0.347816 0.857644 0.490649
0.475714 0.034114 0.490649
0.050705 1.500000 0.069549
-0.230831 0.833847 0.031452
0.592699 0.010317 0.031452
0.019767 1.500000 0.026585
-1.292971 0.809849 0.047332
-0.469441 -0.013681 0.047332
-0.667248 0.822296 -0.243853
0.156282 -0.001235 -0.243853
0.005258 1.500000 0.035477
-1.418964 0.809653 -0.224185
-0.595434 -0.013877 -0.224185
-0.031161 1.500000 0.057497
-1.576031 0.816945 -0.186222
-0.752501 -0.006585 -0.186222
-0.048323 1.500000 -0.048520
-0.435211 0.796579 0.436281
0.388319 -0.026951 0.436281
-0.508908 0.833481 -0.106416
0.314622 0.009951 -0.106416
0.023665 1.500000 0.029774
-1.068686 0.844553 0.499998
-0.245156 0.021023 0.499998
0.026088 1.500000 0.075137
-0.278611 0.806634 -0.316738
0.544919 -0.016896 -0.316738
-1.286546 0.812034 -0.149085
-0.463016 -0.011496 -0.149085
-0.042719 1.500000 -0.010934
-0.366166 0.846220 -0.479335
0.457364 0.022690 -0.479335
0.029043 1.500000 -0.064604
-0.076577 0.847134 0.214875
0.746953 0.023604 0.214875
0.039366 1.500000 0.070287
-0.102541 0.825748 0.160358
0.720989 0.002218 0.160358
0.003152 1.500000 0.013675
-0.432834 0.786586 0.366207
0.390696 -0.036944 0.366207
-0.856770 0.800720 0.401870
-0.033239 -0.022810 0.401870
-1.218888 0.822112 0.385612
-0.395358 -0.001418 0.385612
0.022136 1.500000 -0.045696
-0.610697 0.850884 -0.098235
0.212833 0.027354 -0.098235
0.064685 1.500000 0.036365
-0.668967 0.816988 0.380587
0.154563 -0.006542 0.380587
0.003005 1.500000 -0.052192
-1.092717 0.826040 0.434559
-0.269187 0.002509 0.434559
0.005453 1.500000 0.004380
-0.132901 0.809731 -0.461907
0.690629 -0.013799 -0.461907
-0.034884 1.500000 -0.036933
-1.199337 0.831354 0.409383
-0.375807 0.007824 0.409383
0.039117 1.500000 -0.019269
-0.839408 0.819581 0.347032
-0.015878 -0.003949 0.347032
-0.024801 1.500000 0.057371
-1.245545 0.819332 -0.081992
-0.422015 -0.004198 -0.081992
-0.003747 1.500000 0.055491
-0.993245 0.810304 0.044368
-0.169714 -0.013226 0.044368
-0.035441 1.500000 0.039425
-0.523607 0.826872 -0.275202
0.299923 0.003342 -0.275202
0.007676 1.500000 0.003276
-1.584529 0.810265 0.266508
-0.760999 -0.013265 0.266508
-0.053698 1.500000 -0.024947
LINES 100 381
3 0 1 2
3 3 4 5
3 6 7 8
3 9 10 11
3 12 13 14
3 15 16 17
3 18 19 20
3 21 22 23
3 24 25 26
3 27 28 29
2 30 31
3 32 33 34
3 35 36 37
3 38 39 40
3 41 42 43
2 44 45
2 46 47
3 48 49 50
3 51 52 53
3 54 55 56
3 57 58 59
3 60 61 62
2 63 64
3 65 66 67
3 68 69 70
3 71 72 73
2 74 75
3 76 77 78
3 79 80 81
3 82 83 84
3 85 86 87
3 88 89 90
3 91 92 93
3 94 95 96
3 97 98 99
2 100 101
3 102 103 104
3 105 106 107
3 108 109 110
3 111 112 113
3 114 115 116
3 117 118 119
2 120 121
2 122 123
3 124 125 126
2 127 128
3 129 130 131
2 132 133
3 134 135 136
4 137 138 139 140
2 141 142
3 143 144 145
2 146 147
2 148 149
3 150 151 152
3 153 154 155
2 156 157
3 158 159 160
3 161 162 163
3 164 165 166
3 167 168 169
3 170 171 172
3 173 174 175
3 176 177 178
3 179 180 181
3 182 183 184
3 185 186 187
3 188 189 190
2 191 192
3 193 194 195
3 196 197 198
3 199 200 201
3 202 203 204
3 205 206 207
3 208 209 210
2 211 212
3 213 214 215
3 216 217 218
3 219 220 221
2 222 223
3 224 225 226
3 227 228 229
2 230 231
3 232 233 234
3 235 236 237
3 238 239 240
3 241 242 243
2 244 245
2 246 247
3 248 249 250
3 251 252 253
3 254 255 256
3 257 258 259
3 260 261 262
3 263 264 265
3 266 267 268
3 269 270 271
3 272 273 274
3 275 276 277
3 278 279 280
CELL_DATA 100
SCALARS Radiative_path_type float 1
LOOKUP_TABLE path_type
0.5
0.5
0.5
0.5
0.5
0.5
0.5
0.5
0.5
0.5
1.0
0.5
0.5
0.5
0.5
1.0
1.0
0.5
0.5
0.5
0.5
0.5
1.0
0.5
0.5
0.5
1.0
0.5
0.5
0.5
0.5
0.5
0.5
0.5
0.5
1.0
0.5
0.5
0.5
0.5
0.5
0.5
1.0
1.0
0.5
1.0
0.5
1.0
0.5
0.75
1.0
0.5
1.0
1.0
0.5
0.5
1.0
0.5
0.5
0.5
0.5
0.5
0.5
0.5
0.5
0.5
0.5
0.5
1.0
0.5
0.5
0.5
0.5
0.5
0.5
1.0
0.5
0.5
0.5
1.0
0.5
0.5
1.0
0.5
0.5
0.5
0.5
1.0
1.0
0.5
0.5
0.5
0.5
0.5
0.5
0.5
0.5
0.5
0.5
0.5
LOOKUP_TABLE path_type 5
1.0 0.0 0.0 1.0
0.0 1.0 0.0 1.0
0.0 0.0 1.0 1.0
0.0 1.0 1.0 1.0
1.0 1.0 0.0 1.0
