# vtk DataFile Version 2.0
absorber
ASCII
DATASET POLYDATA
POINTS 4 float
0.125000 1.500000 0.125000
-0.125000 1.500000 -0.125000
0.125000 1.500000 -0.125000
-0.125000 1.500000 0.125000
POLYGONS 2 8
3 0 1 2
3 0 3 1
CELL_DATA 2
SCALARS Front_faces_Incoming_flux double 2
LOOKUP_TABLE default
20846.6 22.0604
14359.1 20.5504
