# vtk DataFile Version 2.0
Radiative paths
ASCII
DATASET POLYDATA
POINTS 241 float
-0.728186 1.058685 0.970893
-0.728186 0.000147 0.465997
-0.633589 0.200000 0.409238
-0.041923 1.450000 0.054238
-0.018256 1.500000 0.040039
0.291460 1.058989 0.506146
0.291460 0.000451 0.001249
-0.452052 1.077516 0.174829
-0.452052 0.018978 -0.330068
0.777559 1.073206 0.941428
0.777559 0.014668 0.436532
0.689835 0.200000 0.383897
0.098169 1.450000 0.028897
0.074502 1.500000 0.014697
0.418595 1.072363 0.440322
0.418595 0.013825 -0.064575
-0.549034 1.043555 0.707629
-0.549034 -0.014983 0.202732
0.757399 1.056302 0.561384
0.757399 -0.002236 0.056488
-0.765482 1.080437 0.332192
-0.765482 0.021899 -0.172705
0.590797 1.078915 0.306346
0.590797 0.020377 -0.198550
-0.158862 1.051620 0.848313
-0.158862 -0.006918 0.343417
0.490771 1.066585 0.225046
0.490771 0.008047 -0.279851
-0.360630 1.036057 0.560776
-0.360630 -0.022480 0.055880
-0.742599 1.062697 0.665424
-0.742599 0.004159 0.160528
0.354170 1.058207 0.843217
0.354170 -0.000330 0.338320
-0.354187 1.055508 0.398643
-0.354187 -0.003030 -0.106254
-0.142728 1.054257 0.671176
-0.142728 -0.004280 0.166279
0.582866 1.066378 0.205830
0.582866 0.007841 -0.299066
0.752671 1.074533 0.871741
0.752671 0.015996 0.366845
0.535601 1.029644 0.138713
0.535601 -0.028894 -0.366184
0.600720 1.080851 0.306248
0.600720 0.022313 -0.198648
0.595913 1.066406 0.072117
0.595913 0.007868 -0.432780
0.097524 1.060229 0.885577
0.097524 0.001691 0.380681
0.653321 1.040617 0.523769
0.653321 -0.017921 0.018873
0.053502 1.054896 0.974060
0.053502 -0.003642 0.469164
0.053502 0.200000 0.411329
0.053502 1.450000 0.056329
0.053502 1.500000 0.042129
-0.293226 1.054131 0.528182
-0.293226 -0.004407 0.023285
-0.733429 1.071021 0.862240
-0.733429 0.012483 0.357343
-0.749504 1.068655 0.218414
-0.749504 0.010118 -0.286482
0.277787 1.062764 0.345501
0.277787 0.004226 -0.159395
-0.118095 1.064843 0.471865
-0.118095 0.006305 -0.033031
-0.572578 1.060836 0.916021
-0.572578 0.002299 0.411124
-0.497715 0.200000 0.354977
-0.497715 0.200000 0.354977
-0.024382 1.450000 -0.000023
-0.005448 1.500000 -0.014223
-0.670662 1.037397 0.404293
-0.670662 -0.021140 -0.100603
0.506772 1.040803 0.678826
0.506772 -0.017735 0.173929
-0.337113 1.056976 0.684704
-0.337113 -0.001561 0.179807
-0.518968 1.051999 0.902306
-0.518968 -0.006539 0.397409
-0.323279 1.065898 0.762371
-0.323279 0.007360 0.257474
-0.333031 1.057673 0.995107
-0.333031 -0.000865 0.490210
-0.295000 0.200000 0.433164
-0.058333 1.450000 0.078164
-0.048867 1.500000 0.063964
-0.442965 1.041599 0.279745
-0.442965 -0.016939 -0.225151
0.468017 1.064714 0.362782
0.468017 0.006176 -0.142114
0.004296 1.061138 0.493404
0.004296 0.002600 -0.011492
-0.594084 1.062792 0.938045
-0.594084 0.004254 0.433149
-0.519962 0.200000 0.377557
-0.046629 1.450000 0.022557
-0.027695 1.500000 0.008357
-0.373652 1.049317 0.225784
-0.373652 -0.009221 -0.279112
-0.723980 1.073395 0.586565
-0.723980 0.014857 0.081668
0.246147 1.049614 0.990974
0.246147 -0.008924 0.486078
0.206590 0.200000 0.426743
-0.030076 1.450000 0.071743
-0.039543 1.500000 0.057543
0.550552 1.052223 0.517502
0.550552 -0.006315 0.012606
0.665920 1.056210 0.604629
0.665920 -0.002328 0.099733
-0.710911 1.071095 0.453111
-0.710911 0.012557 -0.051786
0.197992 1.065463 0.486620
0.197992 0.006925 -0.018277
-0.466421 1.066840 0.354359
-0.466421 0.008302 -0.150537
-0.710174 1.058375 0.932889
-0.710174 -0.000163 0.427992
-0.615430 0.200000 0.371146
-0.023764 1.450000 0.016146
-0.000097 1.500000 0.001946
-0.151748 1.063257 0.623068
-0.151748 0.004719 0.118171
-0.315669 1.065131 0.627554
-0.315669 0.006594 0.122657
-0.013714 1.049760 0.543690
-0.013714 -0.008778 0.038793
-0.162656 1.052179 0.845458
-0.162656 -0.006359 0.340561
0.188776 1.060512 0.079706
0.188776 0.001974 -0.425190
0.271329 1.052093 0.527644
0.271329 -0.006445 0.022747
0.079049 1.053404 0.955152
0.079049 -0.005134 0.450255
0.059630 0.200000 0.391997
-0.058703 1.450000 0.036997
-0.063437 1.500000 0.022797
-0.476911 1.055336 0.705186
-0.476911 -0.003201 0.200290
-0.519691 1.052321 0.491699
-0.519691 -0.006217 -0.013198
-0.290086 1.046390 0.560721
-0.290086 -0.012148 0.055825
-0.764625 1.078596 0.059713
-0.764625 0.020058 -0.445183
-0.192440 1.063277 0.634299
-0.192440 0.004739 0.129402
-0.568675 1.056343 0.371118
-0.568675 -0.002195 -0.133779
0.249075 1.070382 0.437941
0.249075 0.011844 -0.066956
0.718046 1.068986 0.730284
0.718046 0.010449 0.225387
-0.481117 1.058150 0.693151
-0.481117 -0.000388 0.188254
-0.337350 1.065871 0.906170
-0.337350 0.007333 0.401274
-0.352735 1.058185 0.536141
-0.352735 -0.000352 0.031245
0.675027 1.052338 0.496158
0.675027 -0.006200 -0.008739
-0.688932 1.040010 0.114548
-0.688932 -0.018528 -0.390348
-0.194007 1.070032 0.055171
-0.194007 0.011494 -0.449726
0.029246 1.058980 0.925652
0.029246 0.000443 0.420755
0.029246 0.200000 0.364081
0.029246 0.200000 0.364081
0.029246 1.450000 0.009081
0.029246 1.500000 -0.005119
0.129058 1.061277 0.627881
0.129058 0.002739 0.122984
-0.077051 1.063903 0.467021
-0.077051 0.005366 -0.037875
-0.600221 1.062620 0.084214
-0.600221 0.004082 -0.420683
0.228637 1.048402 0.672969
0.228637 -0.010136 0.168072
0.396186 1.065383 0.322897
0.396186 0.006845 -0.182000
-0.713376 1.069462 0.327494
-0.713376 0.010924 -0.177402
-0.016665 1.058829 0.361844
-0.016665 0.000291 -0.143053
0.619289 1.065452 0.373327
0.619289 0.006914 -0.131570
0.328378 1.060242 0.661738
0.328378 0.001704 0.156841
0.710408 1.068504 0.463484
0.710408 0.009966 -0.041413
-0.734224 1.068934 0.756700
-0.734224 0.010396 0.251803
-0.335880 1.043776 0.281332
-0.335880 -0.014762 -0.223564
-0.245102 1.057329 0.632304
-0.245102 -0.001209 0.127407
0.260028 1.055505 0.794079
0.260028 -0.003033 0.289183
0.468957 1.084539 0.026631
0.468957 0.026001 -0.478265
-0.095540 1.054710 0.083037
-0.095540 -0.003828 -0.421860
-0.659729 1.046923 0.787492
-0.659729 -0.011615 0.282595
0.443904 1.058115 0.963794
0.443904 -0.000423 0.458897
0.386984 0.200000 0.401977
0.031984 1.450000 0.046977
0.017784 1.500000 0.032777
-0.410126 1.048043 0.540275
-0.410126 -0.010495 0.035378
0.623980 1.062426 0.096558
0.623980 0.003888 -0.408339
0.456383 1.051138 0.405173
0.456383 -0.007400 -0.099723
0.380288 1.048649 0.812763
0.380288 -0.009889 0.307867
0.240769 1.034973 0.279790
0.240769 -0.023565 -0.225106
-0.405688 1.050192 0.990331
-0.405688 -0.008346 0.485434
-0.346518 0.200000 0.426264
0.008482 1.450000 0.071264
0.022682 1.500000 0.057064
0.435271 1.061056 0.640529
0.435271 0.002519 0.135633
0.303472 1.053338 0.388486
0.303472 -0.005199 -0.116411
-0.064577 1.073814 0.307641
-0.064577 0.015276 -0.197255
0.427193 1.060278 0.913699
0.427193 0.001741 0.408802
0.370888 0.200000 0.352496
0.015888 1.450000 -0.002504
0.001688 1.500000 -0.016704
-0.608579 1.051300 0.416088
-0.608579 -0.007238 -0.088809
LINES 100 341
5 0 1 2 3 4
2 5 6
2 7 8
5 9 10 11 12 13
2 14 15
2 16 17
2 18 19
2 20 21
2 22 23
2 24 25
2 26 27
2 28 29
2 30 31
2 32 33
2 34 35
2 36 37
2 38 39
2 40 41
2 42 43
2 44 45
2 46 47
2 48 49
2 50 51
5 52 53 54 55 56
2 57 58
2 59 60
2 61 62
2 63 64
2 65 66
6 67 68 69 70 71 72
2 73 74
2 75 76
2 77 78
2 79 80
2 81 82
5 83 84 85 86 87
2 88 89
2 90 91
2 92 93
5 94 95 96 97 98
2 99 100
2 101 102
5 103 104 105 106 107
2 108 109
2 110 111
2 112 113
2 114 115
2 116 117
5 118 119 120 121 122
2 123 124
2 125 126
2 127 128
2 129 130
2 131 132
2 133 134
5 135 136 137 138 139
2 140 141
2 142 143
2 144 145
2 146 147
2 148 149
2 150 151
2 152 153
2 154 155
2 156 157
2 158 159
2 160 161
2 162 163
2 164 165
2 166 167
6 168 169 170 171 172 173
2 174 175
2 176 177
2 178 179
2 180 181
2 182 183
2 184 185
2 186 187
2 188 189
2 190 191
2 192 193
2 194 195
2 196 197
2 198 199
2 200 201
2 202 203
2 204 205
2 206 207
5 208 209 210 211 212
2 213 214
2 215 216
2 217 218
2 219 220
2 221 222
5 223 224 225 226 227
2 228 229
2 230 231
2 232 233
5 234 235 236 237 238
2 239 240
CELL_DATA 100
SCALARS Radiative_path_type float 1
LOOKUP_TABLE path_type
0.5
1.0
1.0
0.5
1.0
1.0
1.0
1.0
1.0
1.0
1.0
1.0
1.0
1.0
1.0
1.0
1.0
1.0
1.0
1.0
1.0
1.0
1.0
0.5
1.0
1.0
1.0
1.0
1.0
0.5
1.0
1.0
1.0
1.0
1.0
0.5
1.0
1.0
1.0
0.5
1.0
1.0
0.5
1.0
1.0
1.0
1.0
1.0
0.5
1.0
1.0
1.0
1.0
1.0
1.0
0.5
1.0
1.0
1.0
1.0
1.0
1.0
1.0
1.0
1.0
1.0
1.0
1.0
1.0
1.0
0.5
1.0
1.0
1.0
1.0
1.0
1.0
1.0
1.0
1.0
1.0
1.0
1.0
1.0
1.0
1.0
1.0
1.0
0.5
1.0
1.0
1.0
1.0
1.0
0.5
1.0
1.0
1.0
0.5
1.0
LOOKUP_TABLE path_type 5
1.0 0.0 0.0 1.0
0.0 1.0 0.0 1.0
0.0 0.0 1.0 1.0
0.0 1.0 1.0 1.0
1.0 1.0 0.0 1.0
