# vtk DataFile Version 2.0
Radiative paths
ASCII
DATASET POLYDATA
POINTS 200 float
-0.726214 1.179302 0.465862
-0.726214 0.008867 0.465862
-0.143976 1.167313 0.249663
-0.143976 -0.003122 0.249663
0.646773 1.162041 -0.468059
0.646773 -0.008394 -0.468059
0.370005 1.165323 -0.199609
0.370005 -0.005112 -0.199609
-0.373125 1.165780 0.200125
-0.373125 -0.004655 0.200125
0.424618 1.175915 -0.345599
0.424618 0.005480 -0.345599
0.654809 1.156689 0.111515
0.654809 -0.013746 0.111515
0.602638 1.185783 0.493647
0.602638 0.015348 0.493647
-0.228596 1.161010 0.238084
-0.228596 -0.009426 0.238084
0.349470 1.181576 -0.338289
0.349470 0.011141 -0.338289
0.030427 1.172623 0.307311
0.030427 0.002187 0.307311
-0.030951 1.175057 -0.333258
-0.030951 0.004622 -0.333258
-0.773896 1.184153 0.128335
-0.773896 0.013718 0.128335
0.051150 1.178061 0.480765
0.051150 0.007626 0.480765
0.369494 1.170160 -0.480491
0.369494 -0.000275 -0.480491
0.173643 1.171930 0.052293
0.173643 0.001494 0.052293
0.232682 1.160980 0.233682
0.232682 -0.009455 0.233682
-0.308710 1.171565 0.116711
-0.308710 0.001130 0.116711
-0.667811 1.160955 -0.035477
-0.667811 -0.009481 -0.035477
0.252961 1.168525 0.432859
0.252961 -0.001910 0.432859
0.534880 1.169404 0.338873
0.534880 -0.001032 0.338873
0.160095 1.173789 -0.444102
0.160095 0.003353 -0.444102
0.519725 1.157009 -0.232633
0.519725 -0.013426 -0.232633
0.327120 1.174481 -0.017690
0.327120 0.004046 -0.017690
-0.462725 1.178774 0.319492
-0.462725 0.008339 0.319492
-0.622917 1.173404 -0.374791
-0.622917 0.002968 -0.374791
0.209978 1.172254 -0.269439
0.209978 0.001819 -0.269439
-0.229452 1.162535 -0.253629
-0.229452 -0.007900 -0.253629
-0.292711 1.171253 0.023879
-0.292711 0.000817 0.023879
-0.736958 1.167320 0.357574
-0.736958 -0.003115 0.357574
-0.749744 1.179531 -0.286601
-0.749744 0.009095 -0.286601
0.278178 1.170734 -0.160030
0.278178 0.000299 -0.160030
-0.118464 1.169324 -0.033868
-0.118464 -0.001112 -0.033868
-0.573196 1.169372 0.411188
-0.573196 -0.001063 0.411188
0.069120 1.169789 -0.277111
0.069120 -0.000646 -0.277111
0.262777 1.168444 -0.041465
0.262777 -0.001991 -0.041465
0.493820 1.178713 -0.117249
0.493820 0.008277 -0.117249
0.666254 1.165580 -0.338938
0.666254 -0.004855 -0.338938
0.289492 1.172224 -0.297731
0.289492 0.001788 -0.297731
-0.247191 1.167522 0.429438
-0.247191 -0.002914 0.429438
-0.134224 1.165834 0.395481
-0.134224 -0.004601 0.395481
-0.249534 1.167201 0.020794
-0.249534 -0.003234 0.020794
0.222687 1.163562 -0.117799
0.222687 -0.006874 -0.117799
-0.440986 1.166830 -0.222353
-0.440986 -0.003606 -0.222353
0.468063 1.176286 -0.142119
0.468063 0.005850 -0.142119
0.004296 1.170435 -0.011783
0.004296 -0.000000 -0.011783
-0.593836 1.176040 0.433118
-0.593836 0.005604 0.433118
-0.427582 1.170656 0.015280
-0.427582 0.000220 0.015280
0.282964 1.166446 -0.242152
0.282964 -0.003989 -0.242152
-0.469368 1.177648 -0.435397
-0.469368 0.007213 -0.435397
-0.366493 1.156387 0.220662
-0.366493 -0.014048 0.220662
0.185291 1.175702 -0.210468
0.185291 0.005266 -0.210468
-0.252792 1.168288 0.158554
-0.252792 -0.002147 0.158554
0.157161 1.171151 -0.067726
0.157161 0.000716 -0.067726
-0.424965 1.167141 0.249761
-0.424965 -0.003295 0.249761
-0.466847 1.174033 -0.097134
-0.466847 0.003598 -0.097134
-0.073713 1.158054 -0.359657
-0.073713 -0.012382 -0.359657
0.177267 1.170697 -0.269164
0.177267 0.000262 -0.269164
-0.303887 1.172525 0.286578
-0.303887 0.002090 0.286578
0.655772 1.154819 -0.244513
0.655772 -0.015616 -0.244513
-0.152013 1.169768 0.117825
-0.152013 -0.000667 0.117825
-0.316108 1.172523 0.122372
-0.316108 0.002087 0.122372
-0.013714 1.170435 0.039774
-0.013714 0.000000 0.039774
-0.162048 1.176691 0.340791
-0.162048 0.006256 0.340791
0.188772 1.172483 -0.425143
0.188772 0.002047 -0.425143
0.270815 1.169198 0.023327
0.270815 -0.001237 0.023327
0.078787 1.170858 0.450111
0.078787 0.000422 0.450111
0.235224 1.165163 -0.126929
0.235224 -0.005272 -0.126929
0.632941 1.185194 -0.205503
0.632941 0.014759 -0.205503
-0.226959 1.165056 0.141166
-0.226959 -0.005380 0.141166
-0.186658 1.180421 -0.482974
-0.186658 0.009985 -0.482974
-0.563641 1.170153 -0.289610
-0.563641 -0.000282 -0.289610
0.748792 1.179832 -0.292362
0.748792 0.009397 -0.292362
0.326111 1.171507 -0.405688
0.326111 0.001072 -0.405688
-0.618351 1.178643 0.273720
-0.618351 0.008207 0.273720
-0.309711 1.166407 -0.214983
-0.309711 -0.004029 -0.214983
0.654964 1.158068 -0.051135
0.654964 -0.012367 -0.051135
0.766364 1.183101 0.002257
0.766364 0.012666 0.002257
-0.514399 1.156251 0.234935
-0.514399 -0.014184 0.234935
-0.142031 1.173286 0.202466
-0.142031 0.002851 0.202466
-0.700016 1.168461 -0.147915
-0.700016 -0.001974 -0.147915
0.287826 1.173529 0.313428
0.287826 0.003094 0.313428
-0.102019 1.173128 -0.458707
-0.102019 0.002693 -0.458707
0.194584 1.178203 -0.464371
0.194584 0.007767 -0.464371
0.526266 1.165833 0.208121
0.526266 -0.004603 0.208121
0.129266 1.168926 0.122708
0.129266 -0.001509 0.122708
-0.077469 1.167388 -0.038835
-0.077469 -0.003048 -0.038835
-0.600038 1.175436 -0.420373
-0.600038 0.005001 -0.420373
0.228039 1.166434 0.168457
0.228039 -0.004001 0.168457
0.397500 1.168396 -0.183464
0.397500 -0.002040 -0.183464
-0.715306 1.173272 -0.178713
-0.715306 0.002837 -0.178713
-0.016665 1.170487 -0.143091
-0.016665 0.000052 -0.143091
0.618919 1.179241 -0.131186
0.618919 0.008805 -0.131186
0.328073 1.175267 0.157060
0.328073 0.004832 0.157060
0.712629 1.171026 -0.042512
0.712629 0.000591 -0.042512
-0.735952 1.173333 0.251602
-0.735952 0.002898 0.251602
-0.334523 1.169246 -0.220692
-0.334523 -0.001189 -0.220692
-0.245405 1.166128 0.127192
-0.245405 -0.004307 0.127192
0.259906 1.168678 0.289205
0.259906 -0.001757 0.289205
0.470783 1.184119 -0.481320
0.470783 0.013683 -0.481320
LINES 100 300
2 0 1
2 2 3
2 4 5
2 6 7
2 8 9
2 10 11
2 12 13
2 14 15
2 16 17
2 18 19
2 20 21
2 22 23
2 24 25
2 26 27
2 28 29
2 30 31
2 32 33
2 34 35
2 36 37
2 38 39
2 40 41
2 42 43
2 44 45
2 46 47
2 48 49
2 50 51
2 52 53
2 54 55
2 56 57
2 58 59
2 60 61
2 62 63
2 64 65
2 66 67
2 68 69
2 70 71
2 72 73
2 74 75
2 76 77
2 78 79
2 80 81
2 82 83
2 84 85
2 86 87
2 88 89
2 90 91
2 92 93
2 94 95
2 96 97
2 98 99
2 100 101
2 102 103
2 104 105
2 106 107
2 108 109
2 110 111
2 112 113
2 114 115
2 116 117
2 118 119
2 120 121
2 122 123
2 124 125
2 126 127
2 128 129
2 130 131
2 132 133
2 134 135
2 136 137
2 138 139
2 140 141
2 142 143
2 144 145
2 146 147
2 148 149
2 150 151
2 152 153
2 154 155
2 156 157
2 158 159
2 160 161
2 162 163
2 164 165
2 166 167
2 168 169
2 170 171
2 172 173
2 174 175
2 176 177
2 178 179
2 180 181
2 182 183
2 184 185
2 186 187
2 188 189
2 190 191
2 192 193
2 194 195
2 196 197
2 198 199
CELL_DATA 100
SCALARS Radiative_path_type float 1
LOOKUP_TABLE path_type
1.0
1.0
1.0
1.0
1.0
1.0
1.0
1.0
1.0
1.0
1.0
1.0
1.0
1.0
1.0
1.0
1.0
1.0
1.0
1.0
1.0
1.0
1.0
1.0
1.0
1.0
1.0
1.0
1.0
1.0
1.0
1.0
1.0
1.0
1.0
1.0
1.0
1.0
1.0
1.0
1.0
1.0
1.0
1.0
1.0
1.0
1.0
1.0
1.0
1.0
1.0
1.0
1.0
1.0
1.0
1.0
1.0
1.0
1.0
1.0
1.0
1.0
1.0
1.0
1.0
1.0
1.0
1.0
1.0
1.0
1.0
1.0
1.0
1.0
1.0
1.0
1.0
1.0
1.0
1.0
1.0
1.0
1.0
1.0
1.0
1.0
1.0
1.0
1.0
1.0
1.0
1.0
1.0
1.0
1.0
1.0
1.0
1.0
1.0
1.0
LOOKUP_TABLE path_type 5
1.0 0.0 0.0 1.0
0.0 1.0 0.0 1.0
0.0 0.0 1.0 1.0
0.0 1.0 1.0 1.0
1.0 1.0 0.0 1.0
