# vtk DataFile Version 2.0
Radiative paths
ASCII
DATASET POLYDATA
POINTS 357 float
-0.441899 0.840534 0.323207
0.415391 -0.016756 0.323207
-0.012528 1.490000 1.042432
-0.015368 1.500000 1.047205
-1.489114 0.851081 0.384467
-0.631824 -0.006208 0.384467
-0.629781 0.843312 0.086379
0.227509 -0.013977 0.086379
-1.225913 0.853362 -0.230255
-0.368623 -0.003927 -0.230255
0.055652 1.490000 1.048547
0.058492 1.500000 1.057107
-0.485000 0.835824 -0.312613
0.372289 -0.021465 -0.312613
-0.671125 0.852629 -0.220444
0.186164 -0.004660 -0.220444
0.182139 0.037853 -0.184053
0.232729 -0.014137 -0.180019
-0.056289 1.490000 1.108519
-0.056289 1.490000 1.108519
-0.058210 1.500000 1.117086
-0.413980 0.865840 -0.420645
0.443310 0.008550 -0.420645
0.022578 1.490000 0.987720
0.019738 1.500000 0.997226
-1.313872 0.868425 -0.058320
-0.456582 0.011135 -0.058320
-0.036585 1.490000 0.927590
-0.033745 1.500000 0.934257
-1.411121 0.856639 0.155973
-0.553831 -0.000651 0.155973
0.010629 1.490000 1.008625
0.014415 1.500000 1.014345
-1.368944 0.855494 0.194998
-0.511654 -0.001796 0.194998
0.053239 1.490000 1.048305
0.057025 1.500000 1.054025
-1.010287 0.847779 0.450621
-0.152997 -0.009510 0.450621
-0.011043 1.490000 1.024433
-0.010097 1.500000 1.028260
-0.415793 0.849253 -0.388260
0.441496 -0.008036 -0.388260
0.016054 1.490000 1.035873
0.013214 1.500000 1.045380
-0.396631 0.880208 -0.427453
0.460659 0.022919 -0.427453
0.044008 1.490000 0.967252
0.041168 1.500000 0.976759
-1.559123 0.886939 -0.347977
-0.701834 0.029649 -0.347977
-0.010601 1.490000 0.902083
-0.005868 1.500000 0.910643
-0.313389 0.821527 -0.239687
0.543900 -0.035762 -0.239687
-1.215428 0.862817 0.044450
-0.358139 0.005527 0.044450
0.063451 1.490000 1.034099
0.066291 1.500000 1.040765
-1.627449 0.849253 -0.301576
-0.770159 -0.008036 -0.301576
-0.061089 1.490000 0.980744
-0.056355 1.500000 0.989304
-0.671650 0.869595 0.027806
0.185640 0.012305 0.027806
0.045751 1.490000 1.012936
0.045751 1.490000 1.012936
0.044805 1.500000 1.019603
-1.105251 0.888323 0.083040
-0.247962 0.031033 0.083040
0.028269 1.490000 0.917569
0.030162 1.500000 0.923289
-0.611374 0.810273 -0.374876
0.245916 -0.047016 -0.374876
-1.236743 0.855222 -0.386793
-0.379453 -0.002067 -0.386793
0.044294 1.490000 1.031665
0.047134 1.500000 1.041172
-0.613568 0.821425 0.036662
0.243721 -0.035865 0.036662
-0.674633 0.886394 0.114355
0.182657 0.029105 0.114355
0.044359 1.490000 0.949987
0.043412 1.500000 0.955707
-0.603840 0.812935 -0.223775
0.253450 -0.044355 -0.223775
-1.171591 0.860990 -0.040824
-0.314302 0.003700 -0.040824
-0.032896 1.490000 0.950043
-0.031002 1.500000 0.956709
-0.960502 0.875730 0.408630
-0.103213 0.018440 0.408630
0.036095 1.490000 0.971746
0.037042 1.500000 0.975573
-0.580012 0.843248 0.322940
0.277278 -0.014042 0.322940
-0.007487 1.490000 1.040869
-0.009381 1.500000 1.045642
-0.735803 0.855689 0.387544
0.121487 -0.001601 0.387544
-0.019718 1.490000 0.958330
-0.020665 1.500000 0.962156
-1.385418 0.855829 -0.253167
-0.528129 -0.001460 -0.253167
0.036637 1.490000 1.023523
0.040424 1.500000 1.032083
-0.853920 0.879168 -0.329686
0.003370 0.021879 -0.329686
0.003370 1.490000 0.927026
0.003370 1.500000 0.935586
-0.475975 0.846671 -0.324317
0.381315 -0.010618 -0.324317
-0.586859 0.872803 -0.475148
0.270430 0.015513 -0.475148
-0.008739 1.490000 0.926598
-0.010632 1.500000 0.936104
-0.895826 0.842360 -0.292227
-0.038536 -0.014930 -0.292227
-0.431175 0.856843 0.285953
0.426115 -0.000446 0.285953
0.002828 1.490000 0.997392
-0.000012 1.500000 1.002166
-1.337337 0.831865 0.320919
-0.480048 -0.025425 0.320919
-0.957229 0.867078 -0.122308
-0.099939 0.009788 -0.122308
0.040187 1.490000 1.004627
0.041134 1.500000 1.012240
-0.738463 0.871095 -0.480869
0.118827 0.013806 -0.480869
-0.020920 1.490000 0.922500
-0.020920 1.490000 0.922500
-0.021866 1.500000 0.932006
-0.439473 0.845280 0.164547
0.417817 -0.012010 0.164547
-0.008754 1.490000 1.023696
-0.011594 1.500000 1.029416
-0.327653 0.826426 0.014479
0.529636 -0.030863 0.014479
-1.083210 0.893277 0.222359
-0.225921 0.035987 0.222359
0.049372 1.490000 0.916408
0.051266 1.500000 0.921182
-0.764196 0.853602 -0.196173
0.093094 -0.003687 -0.196173
-0.144983 0.861465 -0.431272
0.712307 0.004176 -0.431272
0.009016 1.490000 0.981252
0.004283 1.500000 0.990758
-0.958528 0.868331 0.446092
-0.101239 0.011041 0.446092
0.038769 1.490000 1.012040
0.039716 1.500000 1.015867
-0.438601 0.821960 -0.361665
0.418688 -0.035329 -0.361665
0.407170 0.005226 -0.323111
1.255082 -0.859133 -0.261300
-1.626390 0.861521 -0.189811
-0.769101 0.004231 -0.189811
-0.065837 1.490000 0.941355
-0.065837 1.490000 0.941355
-0.061104 1.500000 0.948968
-0.771712 0.817461 0.030513
0.085578 -0.039829 0.030513
-1.602492 0.851965 -0.150387
-0.745202 -0.005325 -0.150387
-0.037415 1.490000 0.988053
-0.032682 1.500000 0.995667
-0.765788 0.840578 -0.165882
0.091501 -0.016711 -0.165882
-0.265998 0.875051 -0.147003
0.591292 0.017762 -0.147003
0.033804 1.490000 0.973861
0.033804 1.490000 0.973861
0.030017 1.500000 0.981474
-0.471493 0.849677 0.220801
0.385797 -0.007612 0.220801
-0.812543 0.854358 -0.373985
0.044747 -0.002932 -0.373985
0.044747 0.042371 -0.330917
0.092605 -0.007005 -0.327493
-0.053468 1.490000 1.095998
-0.053468 1.490000 1.095998
-0.054444 1.500000 1.105507
-0.332340 0.820739 0.167656
0.524949 -0.036551 0.167656
-0.603535 0.853019 0.101966
0.253755 -0.004270 0.101966
-0.029161 1.490000 0.956689
-0.031054 1.500000 0.962409
-1.157194 0.852310 0.424930
-0.299905 -0.004979 0.424930
-0.016856 1.490000 0.997009
-0.014962 1.500000 1.000836
-0.250309 0.878734 0.156604
0.606980 0.021444 0.156604
0.050887 1.490000 0.996618
0.047101 1.500000 1.002338
-0.741925 0.852603 0.252375
0.115365 -0.004686 0.252375
-0.026132 1.490000 0.965838
-0.027079 1.500000 0.970612
-0.541643 0.880217 -0.014151
0.315647 0.022927 -0.014151
0.037881 1.490000 0.963897
0.035988 1.500000 0.970564
-0.396818 0.889701 0.371098
0.460471 0.032412 0.371098
0.046516 1.490000 0.928869
0.043676 1.500000 0.932695
-0.669163 0.880408 0.282620
0.188126 0.023118 0.282620
0.049262 1.490000 0.982812
0.048315 1.500000 0.987585
-1.446225 0.845992 -0.272445
-0.588936 -0.011298 -0.272445
-0.020444 1.490000 1.012665
-0.016658 1.500000 1.021225
-0.848914 0.861999 0.280153
0.008376 0.004709 0.280153
0.008376 1.490000 0.989132
0.008376 1.490000 0.989132
0.008376 1.500000 0.993905
-0.180209 0.823295 -0.261247
0.677080 -0.033995 -0.261247
-1.033823 0.822008 0.058782
-0.176533 -0.035281 0.058782
-0.404085 0.853769 0.057116
0.453204 -0.003521 0.057116
0.443633 0.030182 0.079584
1.291329 -0.832830 0.160285
-1.280177 0.860307 0.275988
-0.422887 0.003017 0.275988
-0.000584 1.490000 0.985774
0.002256 1.500000 0.990548
-0.798163 0.879175 0.299281
0.059126 0.021885 0.299281
0.059126 1.490000 1.000061
0.059126 1.500000 1.004834
-1.330803 0.828044 0.040180
-0.473514 -0.029245 0.040180
-0.705418 0.847934 -0.251017
0.151871 -0.009356 -0.251017
0.009932 1.490000 1.032431
0.008986 1.500000 1.040991
-0.148227 0.840107 -0.390767
0.709063 -0.017182 -0.390767
-0.004337 1.490000 1.042061
-0.009070 1.500000 1.051568
-0.323390 0.819385 -0.250499
0.533899 -0.037905 -0.250499
-1.619105 0.842647 -0.136920
-0.761815 -0.014643 -0.136920
-0.049618 1.490000 1.008615
-0.049618 1.490000 1.008615
-0.044885 1.500000 1.016228
-0.919023 0.824361 -0.132372
-0.061733 -0.032929 -0.132372
-1.510399 0.878085 0.114142
-0.653109 0.020795 0.114142
0.042314 1.490000 0.954527
0.047048 1.500000 0.960247
-1.187072 0.844938 0.272363
-0.329783 -0.012351 0.272363
-1.110040 0.866100 -0.134854
-0.252750 0.008810 -0.134854
0.027688 1.490000 0.992825
0.029581 1.500000 1.000438
-0.865485 0.878368 -0.203858
-0.008196 0.021078 -0.203858
-0.008196 1.490000 0.914481
-0.008196 1.500000 0.922094
-0.284255 0.855221 -0.271321
0.573034 -0.002068 -0.271321
0.008038 1.490000 1.005890
0.004251 1.500000 1.014450
-0.336496 0.845497 -0.193166
0.520793 -0.011792 -0.193166
-0.756092 0.820201 -0.394870
0.101197 -0.037089 -0.394870
-0.548678 0.869021 0.433400
0.308612 0.011731 0.433400
0.028726 1.490000 0.999084
0.026833 1.500000 1.002910
-0.771163 0.834993 0.403752
0.086127 -0.022297 0.403752
-0.577418 0.865864 0.376030
0.279872 0.008574 0.376030
-0.000612 1.490000 0.942922
-0.002505 1.500000 0.946749
-0.234519 0.883929 -0.259063
0.622770 0.026639 -0.259063
0.068644 1.490000 0.993574
0.064858 1.500000 1.002134
-1.408927 0.838029 -0.228431
-0.551637 -0.019261 -0.228431
-0.533767 0.027932 -0.188034
0.303041 -0.847120 -0.125360
-0.116343 0.886002 0.120853
0.740947 0.028712 0.120853
0.049271 1.490000 0.956710
0.044537 1.500000 0.962430
-1.520973 0.862263 0.301448
-0.663683 0.004974 0.301448
0.039229 1.490000 1.010301
0.043963 1.500000 1.015074
-0.623471 0.812332 -0.394116
0.233819 -0.044957 -0.394116
-0.887537 0.829876 0.037508
-0.030247 -0.027414 0.037508
-1.336177 0.841830 0.429036
-0.478888 -0.015459 0.429036
-1.101712 0.885798 -0.313897
-0.244422 0.028508 -0.313897
0.032287 1.490000 0.937140
0.034180 1.500000 0.945700
-1.520563 0.877775 0.107921
-0.663274 0.020486 0.107921
0.032296 1.490000 0.948483
0.037030 1.500000 0.954203
-0.914054 0.841881 0.248397
-0.056764 -0.015409 0.248397
-0.591794 0.867414 0.076856
0.265496 0.010125 0.076856
-0.014694 1.490000 0.923344
-0.016587 1.500000 0.929064
-0.655639 0.889996 -0.286238
0.201651 0.032707 -0.286238
0.063694 1.490000 0.961205
0.062747 1.500000 0.969765
-0.802795 0.863887 0.051161
0.054494 0.006597 0.051161
0.054494 0.045023 0.076778
0.100043 -0.001904 0.081152
-0.044808 1.490000 1.076214
-0.045779 1.500000 1.082883
-0.984764 0.877458 0.229572
-0.127474 0.020168 0.229572
0.011670 1.490000 0.931172
0.012617 1.500000 0.935945
-1.297513 0.849174 -0.133344
-0.440223 -0.008116 -0.133344
-0.014759 1.490000 1.007222
-0.014759 1.490000 1.007222
-0.011919 1.500000 1.014835
-0.109926 0.893879 0.378274
0.747363 0.036589 0.378274
0.059415 1.490000 0.934446
0.054682 1.500000 0.938273
-0.537929 0.897000 -0.190499
0.319361 0.039710 -0.190499
0.044773 1.490000 0.913655
0.042880 1.500000 0.921268
-1.564221 0.868467 -0.168704
-0.706932 0.011178 -0.168704
-0.006956 1.490000 0.957173
-0.002222 1.500000 0.964786
LINES 100 457
4 0 1 2 3
2 4 5
2 6 7
4 8 9 10 11
2 12 13
7 14 15 16 17 18 19 20
4 21 22 23 24
4 25 26 27 28
4 29 30 31 32
4 33 34 35 36
4 37 38 39 40
4 41 42 43 44
4 45 46 47 48
4 49 50 51 52
2 53 54
4 55 56 57 58
4 59 60 61 62
5 63 64 65 66 67
4 68 69 70 71
2 72 73
4 74 75 76 77
2 78 79
4 80 81 82 83
2 84 85
4 86 87 88 89
4 90 91 92 93
4 94 95 96 97
4 98 99 100 101
4 102 103 104 105
4 106 107 108 109
2 110 111
4 112 113 114 115
2 116 117
4 118 119 120 121
2 122 123
4 124 125 126 127
5 128 129 130 131 132
4 133 134 135 136
2 137 138
4 139 140 141 142
2 143 144
4 145 146 147 148
4 149 150 151 152
4 153 154 155 156
5 157 158 159 160 161
2 162 163
4 164 165 166 167
2 168 169
5 170 171 172 173 174
2 175 176
7 177 178 179 180 181 182 183
2 184 185
4 186 187 188 189
4 190 191 192 193
4 194 195 196 197
4 198 199 200 201
4 202 203 204 205
4 206 207 208 209
4 210 211 212 213
4 214 215 216 217
5 218 219 220 221 222
2 223 224
2 225 226
4 227 228 229 230
4 231 232 233 234
4 235 236 237 238
2 239 240
4 241 242 243 244
4 245 246 247 248
2 249 250
5 251 252 253 254 255
2 256 257
4 258 259 260 261
2 262 263
4 264 265 266 267
4 268 269 270 271
4 272 273 274 275
2 276 277
2 278 279
4 280 281 282 283
2 284 285
4 286 287 288 289
4 290 291 292 293
4 294 295 296 297
4 298 299 300 301
4 302 303 304 305
2 306 307
2 308 309
2 310 311
4 312 313 314 315
4 316 317 318 319
2 320 321
4 322 323 324 325
4 326 327 328 329
6 330 331 332 333 334 335
4 336 337 338 339
5 340 341 342 343 344
4 345 346 347 348
4 349 350 351 352
4 353 354 355 356
CELL_DATA 100
SCALARS Radiative_path_type float 1
LOOKUP_TABLE path_type
0.5
1.0
1.0
0.5
1.0
0.5
0.5
0.5
0.5
0.5
0.5
0.5
0.5
0.5
1.0
0.5
0.5
0.5
0.5
1.0
0.5
1.0
0.5
1.0
0.5
0.5
0.5
0.5
0.5
0.5
1.0
0.5
1.0
0.5
1.0
0.5
0.5
0.5
1.0
0.5
1.0
0.5
0.5
0.75
0.5
1.0
0.5
1.0
0.5
1.0
0.5
1.0
0.5
0.5
0.5
0.5
0.5
0.5
0.5
0.5
0.5
1.0
1.0
0.75
0.5
0.5
1.0
0.5
0.5
1.0
0.5
1.0
0.5
1.0
0.5
0.5
0.5
1.0
1.0
0.5
1.0
0.5
0.5
0.75
0.5
0.5
1.0
1.0
1.0
0.5
0.5
1.0
0.5
0.5
0.5
0.5
0.5
0.5
0.5
0.5
LOOKUP_TABLE path_type 5
1.0 0.0 0.0 1.0
0.0 1.0 0.0 1.0
0.0 0.0 1.0 1.0
0.0 1.0 1.0 1.0
1.0 1.0 0.0 1.0
