# vtk DataFile Version 2.0
Radiative paths
ASCII
DATASET POLYDATA
POINTS 248 float
-1.556292 0.830534 0.465723
-0.728565 0.002807 0.465723
-0.635227 0.200000 0.409721
-0.043561 1.450000 0.054721
-0.019894 1.500000 0.040521
-0.537124 0.831217 0.001281
0.290603 0.003490 0.001281
-1.282579 0.825301 -0.332195
-0.454853 -0.002426 -0.332195
-0.062105 0.868792 0.436498
0.765621 0.041065 0.436498
-0.919252 0.845895 0.068152
-0.091525 0.018168 0.068152
-0.290836 0.813031 0.335173
0.536890 -0.014696 0.335173
-1.049195 0.838449 0.369137
-0.221468 0.010722 0.369137
-0.685724 0.830980 -0.313588
0.142003 0.003253 -0.313588
-1.093239 0.832892 -0.278262
-0.265512 0.005165 -0.278262
-1.053917 0.847106 -0.295580
-0.226190 0.019379 -0.295580
-1.564838 0.832275 -0.486867
-0.737111 0.004548 -0.486867
-0.644597 0.200000 -0.431359
-0.644597 0.200000 -0.431359
-0.052931 1.450000 -0.076359
-0.029264 1.500000 -0.062159
-0.453754 0.805620 -0.480468
0.373973 -0.022107 -0.480468
-0.657064 0.841217 0.052293
0.170662 0.013490 0.052293
-0.587332 0.799032 0.233700
0.240395 -0.028694 0.233700
-1.134936 0.819151 0.116718
-0.307210 -0.008576 0.116718
-1.495121 0.835113 -0.035477
-0.667394 0.007386 -0.035477
-0.576223 0.200000 -0.035477
-0.576223 0.200000 -0.035477
0.015443 1.450000 -0.035477
0.039110 1.500000 -0.035477
-0.286294 0.800335 -0.362703
0.541432 -0.027392 -0.362703
-0.230650 0.849694 -0.200732
0.597077 0.021967 -0.200732
-0.236043 0.844297 -0.433174
0.591684 0.016571 -0.433174
-0.722849 0.802588 0.381003
0.104877 -0.025139 0.381003
-0.166191 0.793583 0.019373
0.661536 -0.034143 0.019373
-0.780982 0.854541 0.468833
0.046745 0.026815 0.468833
-1.471411 0.841266 -0.300058
-0.643684 0.013539 -0.300058
-0.555426 0.200000 -0.264755
0.036241 1.450000 -0.028088
0.059907 1.500000 -0.018621
-1.561034 0.812703 0.357812
-0.733307 -0.015024 0.357812
-0.723969 0.004705 0.352209
0.092927 -0.828320 0.257266
-1.577910 0.820824 -0.286596
-0.750183 -0.006903 -0.286596
-0.652249 0.200000 -0.247423
-0.652249 0.200000 -0.247423
-0.060582 1.450000 -0.010756
-0.036916 1.500000 -0.001290
-0.790563 0.853423 -0.486800
0.037164 0.025697 -0.486800
-0.919419 0.845834 0.057123
-0.091693 0.018108 0.057123
-1.593609 0.818039 0.055297
-0.765883 -0.009688 0.055297
-0.666630 0.200000 0.055297
-0.074964 1.450000 0.055297
-0.051297 1.500000 0.055297
-0.156197 0.806351 -0.338942
0.671530 -0.021375 -0.338942
-0.539374 0.831542 -0.297726
0.288352 0.003816 -0.297726
-1.076716 0.839462 0.429430
-0.248990 0.011735 0.429430
-0.960622 0.826120 0.395543
-0.132896 -0.001606 0.395543
-1.078647 0.837928 0.020794
-0.250920 0.010202 0.020794
-0.597694 0.797824 -0.117801
0.230033 -0.029902 -0.117801
-1.265947 0.817815 -0.222434
-0.438220 -0.009911 -0.222434
-0.365122 0.849259 -0.142119
0.462605 0.021532 -0.142119
-0.823757 0.829371 -0.011783
0.003969 0.001644 -0.011783
-1.421738 0.822966 0.433095
-0.594011 -0.004760 0.433095
-0.516475 0.200000 0.374944
-0.516475 0.200000 0.374944
-0.043142 1.450000 0.019944
-0.024209 1.500000 0.005744
-0.919554 0.846231 -0.148984
-0.091827 0.018504 -0.148984
-0.793495 0.843789 0.175358
0.034231 0.016063 0.175358
-1.363506 0.835753 0.292713
-0.535780 0.008026 0.292713
-1.242252 0.833400 -0.191126
-0.414525 0.005674 -0.191126
-0.275120 0.817780 0.012935
0.552607 -0.009947 0.012935
-0.152153 0.801179 0.099045
0.675574 -0.026547 0.099045
-1.541452 0.827081 -0.053160
-0.713725 -0.000646 -0.053160
-0.618753 0.200000 -0.053160
-0.027086 1.450000 -0.053160
-0.003419 1.500000 -0.053160
-0.653257 0.841503 -0.269173
0.174469 0.013777 -0.269173
-1.130888 0.822004 0.286575
-0.303161 -0.005722 0.286575
-0.161769 0.792448 -0.244511
0.665958 -0.035279 -0.244511
-0.978677 0.823159 0.117831
-0.150951 -0.004568 0.117831
-1.142145 0.817229 0.122377
-0.314419 -0.010497 0.122377
-0.840397 0.822478 0.039774
-0.012670 -0.005248 0.039774
-0.990822 0.826271 0.340737
-0.163096 -0.001456 0.340737
-0.643452 0.847842 -0.425144
0.184275 0.020115 -0.425144
-0.555435 0.821538 0.023327
0.272292 -0.006189 0.023327
-0.744189 0.803651 0.450083
0.083538 -0.024076 0.450083
-0.586738 0.804127 -0.126931
0.240989 -0.023600 -0.126931
-0.205416 0.866271 -0.205503
0.622310 0.038544 -0.205503
-1.056983 0.844632 0.141166
-0.229256 0.016905 0.141166
-1.015020 0.820249 -0.482857
-0.187293 -0.007477 -0.482857
-1.391615 0.829232 -0.289602
-0.563888 0.001505 -0.289602
-0.085547 0.851340 -0.292362
0.742179 0.023613 -0.292362
-0.505307 0.845021 -0.405704
0.322420 0.017294 -0.405704
-1.445310 0.815711 0.273735
-0.617584 -0.012015 0.273735
-0.537301 0.200000 0.233593
-0.063967 1.450000 -0.003073
-0.045034 1.500000 -0.012540
-1.307063 0.816348 0.188938
-0.479337 -0.011379 0.188938
-1.161831 0.807743 0.401472
-0.334104 -0.019984 0.401472
-1.177059 0.807579 0.032041
-0.349332 -0.020148 0.032041
-0.146715 0.807304 -0.008971
0.681011 -0.020423 -0.008971
-1.512359 0.826512 -0.388407
-0.684632 -0.001214 -0.388407
-0.589391 0.200000 -0.331263
0.002276 1.450000 0.023737
0.025942 1.500000 0.037937
-1.201965 0.843007 0.298383
-0.374238 0.015280 0.298383
-0.796555 0.840638 -0.067594
0.031171 0.012912 -0.067594
-1.573635 0.811025 0.361969
-0.745908 -0.016701 0.361969
-0.643336 0.200000 0.300425
-0.051670 1.450000 -0.054575
-0.028003 1.500000 -0.068775
-1.427151 0.819716 -0.420391
-0.599424 -0.008011 -0.420391
-0.520658 0.200000 -0.361316
-0.047324 1.450000 -0.006316
-0.028391 1.500000 0.007884
-0.445040 0.805028 0.310436
0.382687 -0.022698 0.310436
-1.230412 0.836596 0.193008
-0.402686 0.008869 0.193008
-1.305540 0.814652 -0.290101
-0.477814 -0.013074 -0.290101
-1.159635 0.814446 -0.170270
-0.331908 -0.013281 -0.170270
-1.199160 0.839824 0.262149
-0.371433 0.012097 0.262149
-0.265356 0.818359 0.230628
0.562370 -0.009367 0.230628
-0.296716 0.805611 0.301494
0.531011 -0.022116 0.301494
-0.854422 0.826003 -0.484567
-0.026696 -0.001723 -0.484567
-0.085873 0.850893 -0.155390
0.741854 0.023166 -0.155390
-0.590009 0.803406 0.428995
0.237718 -0.024321 0.428995
-1.120672 0.823375 0.113206
-0.292945 -0.004352 0.113206
-0.547923 0.823709 -0.415122
0.279804 -0.004017 -0.415122
-1.010719 0.814741 -0.439400
-0.182992 -0.012986 -0.439400
-1.564078 0.824864 -0.438803
-0.736351 -0.002863 -0.438803
-0.640329 0.200000 -0.381190
-0.048663 1.450000 -0.026190
-0.024996 1.500000 -0.011990
-0.499038 0.854491 -0.198489
0.328689 0.026764 -0.198489
-1.128698 0.822135 0.135869
-0.300971 -0.005592 0.135869
-1.299983 0.811291 0.245490
-0.472257 -0.016436 0.245490
-1.015959 0.814583 0.317774
-0.188232 -0.013144 0.317774
-0.114083 0.830294 0.048929
0.713644 0.002567 0.048929
-1.049337 0.844547 -0.259044
-0.221611 0.016820 -0.259044
-0.367728 0.850331 -0.307432
0.459998 0.022605 -0.307432
-0.393352 0.832300 0.135537
0.434375 0.004573 0.135537
-0.526448 0.835417 -0.115480
0.301279 0.007691 -0.115480
-0.888488 0.805662 -0.199253
-0.060761 -0.022065 -0.199253
-0.399288 0.826418 0.408896
0.428439 -0.001309 0.408896
-1.495400 0.829246 0.226779
-0.667673 0.001520 0.226779
-0.573726 0.200000 0.189200
0.017941 1.450000 -0.047467
0.041608 1.500000 -0.056933
-0.405375 0.819323 -0.226327
0.422351 -0.008403 -0.226327
-0.277171 0.819032 -0.190099
0.550555 -0.008694 -0.190099
LINES 100 348
5 0 1 2 3 4
2 5 6
2 7 8
2 9 10
2 11 12
2 13 14
2 15 16
2 17 18
2 19 20
2 21 22
6 23 24 25 26 27 28
2 29 30
2 31 32
2 33 34
2 35 36
6 37 38 39 40 41 42
2 43 44
2 45 46
2 47 48
2 49 50
2 51 52
2 53 54
5 55 56 57 58 59
4 60 61 62 63
6 64 65 66 67 68 69
2 70 71
2 72 73
5 74 75 76 77 78
2 79 80
2 81 82
2 83 84
2 85 86
2 87 88
2 89 90
2 91 92
2 93 94
2 95 96
6 97 98 99 100 101 102
2 103 104
2 105 106
2 107 108
2 109 110
2 111 112
2 113 114
5 115 116 117 118 119
2 120 121
2 122 123
2 124 125
2 126 127
2 128 129
2 130 131
2 132 133
2 134 135
2 136 137
2 138 139
2 140 141
2 142 143
2 144 145
2 146 147
2 148 149
2 150 151
2 152 153
5 154 155 156 157 158
2 159 160
2 161 162
2 163 164
2 165 166
5 167 168 169 170 171
2 172 173
2 174 175
5 176 177 178 179 180
5 181 182 183 184 185
2 186 187
2 188 189
2 190 191
2 192 193
2 194 195
2 196 197
2 198 199
2 200 201
2 202 203
2 204 205
2 206 207
2 208 209
2 210 211
5 212 213 214 215 216
2 217 218
2 219 220
2 221 222
2 223 224
2 225 226
2 227 228
2 229 230
2 231 232
2 233 234
2 235 236
2 237 238
5 239 240 241 242 243
2 244 245
2 246 247
CELL_DATA 100
SCALARS Radiative_path_type float 1
LOOKUP_TABLE path_type
0.5
1.0
1.0
1.0
1.0
1.0
1.0
1.0
1.0
1.0
0.5
1.0
1.0
1.0
1.0
0.5
1.0
1.0
1.0
1.0
1.0
1.0
0.5
0.75
0.5
1.0
1.0
0.5
1.0
1.0
1.0
1.0
1.0
1.0
1.0
1.0
1.0
0.5
1.0
1.0
1.0
1.0
1.0
1.0
0.5
1.0
1.0
1.0
1.0
1.0
1.0
1.0
1.0
1.0
1.0
1.0
1.0
1.0
1.0
1.0
1.0
1.0
0.5
1.0
1.0
1.0
1.0
0.5
1.0
1.0
0.5
0.5
1.0
1.0
1.0
1.0
1.0
1.0
1.0
1.0
1.0
1.0
1.0
1.0
1.0
0.5
1.0
1.0
1.0
1.0
1.0
1.0
1.0
1.0
1.0
1.0
1.0
0.5
1.0
1.0
LOOKUP_TABLE path_type 5
1.0 0.0 0.0 1.0
0.0 1.0 0.0 1.0
0.0 0.0 1.0 1.0
0.0 1.0 1.0 1.0
1.0 1.0 0.0 1.0
