# vtk DataFile Version 2.0
Radiative paths
ASCII
DATASET POLYDATA
POINTS 241 float
0.106203 0.842156 0.465868
-0.721523 0.014430 0.465868
0.682615 0.825432 0.249682
-0.145112 -0.002295 0.249682
1.476415 0.845651 -0.467913
0.648689 0.017925 -0.467913
0.562507 0.200000 -0.416203
0.562507 0.200000 -0.416203
-0.029160 1.450000 -0.061203
-0.052827 1.500000 -0.047003
0.876542 0.810853 -0.316291
0.048816 -0.016874 -0.316291
1.463359 0.813385 0.432124
0.635632 -0.014341 0.432124
1.248575 0.829066 -0.066238
0.420849 0.001339 -0.066238
0.279255 0.818415 0.203681
-0.548472 -0.009311 0.203681
1.582664 0.819936 0.057987
0.754938 -0.007790 0.057987
0.656584 0.200000 0.057987
0.064917 1.450000 0.057987
0.041250 1.500000 0.057987
0.801105 0.844287 -0.333221
-0.026621 0.016560 -0.333221
0.063974 0.864896 0.128334
-0.763752 0.037169 0.128334
0.878039 0.815361 0.480676
0.050312 -0.012366 0.480676
1.201871 0.850552 -0.480335
0.374145 0.022825 -0.480335
0.999533 0.816998 0.052293
0.171806 -0.010729 0.052293
1.060563 0.838263 0.233739
0.232837 0.010537 0.233739
0.521316 0.838202 0.116713
-0.306411 0.010476 0.116713
0.153076 0.802822 -0.035477
-0.674650 -0.024904 -0.035477
1.082438 0.838190 0.432842
0.254711 0.010463 0.432842
1.364954 0.840369 0.338793
0.537227 0.012643 0.338793
0.987785 0.823993 -0.444065
0.160058 -0.003733 -0.444065
1.345844 0.833215 -0.232708
0.518117 0.005489 -0.232708
1.153113 0.814963 -0.017690
0.325386 -0.012763 -0.017690
0.371097 0.849649 0.319485
-0.456629 0.021923 0.319485
0.210265 0.851786 -0.374796
-0.617461 0.024060 -0.374796
1.033088 0.803027 -0.269452
0.205361 -0.024700 -0.269452
0.590948 0.799288 -0.253640
-0.236779 -0.028438 -0.253640
0.535992 0.831815 0.023879
-0.291735 0.004089 0.023879
0.091726 0.835400 0.357563
-0.736001 0.007674 0.357563
0.084555 0.851433 -0.286601
-0.743171 0.023706 -0.286601
1.106496 0.830337 -0.160025
0.278769 0.002610 -0.160025
0.707046 0.817693 -0.033868
-0.120681 -0.010034 -0.033868
0.254520 0.828758 0.411189
-0.573207 0.001032 0.411189
0.891219 0.800398 -0.277116
0.063492 -0.027329 -0.277116
1.091357 0.834008 -0.041465
0.263630 0.006282 -0.041465
1.319493 0.809196 -0.117257
0.491766 -0.018530 -0.117257
1.495656 0.841030 -0.338850
0.667930 0.013304 -0.338850
0.579560 0.200000 -0.303503
-0.012107 1.450000 -0.066836
-0.035773 1.500000 -0.057369
0.307677 0.793060 -0.404460
-0.520049 -0.034667 -0.404460
1.253765 0.831344 -0.208598
0.426039 0.003617 -0.208598
0.158836 0.792395 0.224391
-0.668890 -0.035331 0.224391
0.255797 0.830266 0.061394
-0.571930 0.002540 0.061394
1.436668 0.819707 -0.433858
0.608941 -0.008020 -0.433858
0.530171 0.200000 -0.374781
0.530171 0.200000 -0.374781
0.056838 1.450000 -0.019781
0.037904 1.500000 -0.005581
0.238107 0.842943 0.433117
-0.589619 0.015217 0.433117
0.400349 0.828536 0.015280
-0.427377 0.000809 0.015280
1.109086 0.823985 -0.242199
0.281359 -0.003742 -0.242199
0.364603 0.851279 -0.435393
-0.463124 0.023552 -0.435393
0.451144 0.791699 0.220674
-0.376583 -0.036028 0.220674
1.011840 0.816300 -0.210451
0.184114 -0.011426 -0.210451
0.571741 0.813804 0.158553
-0.255986 -0.013922 0.158553
0.984008 0.822586 -0.067726
0.156281 -0.005140 -0.067726
0.401374 0.824225 0.249768
-0.426353 -0.003501 0.249768
0.365357 0.846671 -0.097136
-0.462370 0.018944 -0.097136
0.743541 0.789199 -0.359736
-0.084186 -0.038528 -0.359736
1.002311 0.814218 -0.269178
0.174584 -0.013509 -0.269178
0.526190 0.837337 0.286577
-0.301536 0.009610 0.286577
1.481557 0.833597 -0.244576
0.653830 0.005871 -0.244576
0.561942 0.200000 -0.207821
-0.029724 1.450000 0.028845
-0.053391 1.500000 0.038312
0.851154 0.818023 -0.013833
0.023428 -0.009704 -0.013833
0.506236 0.847923 -0.286319
-0.321491 0.020197 -0.286319
0.205248 0.863441 -0.150887
-0.622479 0.035714 -0.150887
1.110347 0.829020 0.157762
0.282620 0.001293 0.157762
0.059856 0.866474 0.263814
-0.767871 0.038748 0.263814
1.509606 0.827049 0.388584
0.681880 -0.000677 0.388584
0.586893 0.200000 0.331592
-0.004774 1.450000 -0.023408
-0.028441 1.500000 -0.037608
1.119403 0.816568 -0.372433
0.291677 -0.011158 -0.372433
1.333761 0.839299 0.410551
0.506034 0.011572 0.410551
0.719024 0.821544 -0.485799
-0.108703 -0.006183 -0.485799
1.535683 0.828970 -0.158718
0.707956 0.001244 -0.158718
0.613878 0.200000 -0.139902
0.022211 1.450000 -0.021569
-0.001455 1.500000 -0.016835
0.216429 0.854706 0.273720
-0.611298 0.026980 0.273720
0.518328 0.833696 -0.215008
-0.309399 0.005969 -0.215008
1.482147 0.837362 -0.051135
0.654421 0.009635 -0.051135
0.564315 0.200000 -0.051135
0.564315 0.200000 -0.051135
-0.027352 1.450000 -0.051135
-0.051019 1.500000 -0.051135
1.060043 0.853900 -0.485504
0.232316 0.026174 -0.485504
0.635755 0.849044 -0.409930
-0.191972 0.021317 -0.409930
0.309526 0.792601 0.409137
-0.518201 -0.035126 0.409137
1.533491 0.836622 0.477630
0.705764 0.008895 0.477630
0.615308 0.200000 0.423356
0.615308 0.200000 0.423356
0.023641 1.450000 0.068356
-0.000026 1.500000 0.054156
0.674194 0.827127 0.228754
-0.153532 -0.000600 0.228754
1.502553 0.834767 0.291182
0.674826 0.007040 0.291182
0.583492 0.200000 0.254648
-0.008175 1.450000 0.017982
-0.031841 1.500000 0.008515
0.401721 0.827730 -0.043296
-0.426006 0.000004 -0.043296
0.067379 0.863197 -0.003593
-0.760348 0.035470 -0.003593
0.925259 0.845828 0.178981
0.097533 0.018101 0.178981
0.125182 0.819819 -0.409296
-0.702545 -0.007908 -0.409296
0.396156 0.833867 0.194594
-0.431570 0.006140 0.194594
0.378515 0.838969 -0.097800
-0.449212 0.011243 -0.097800
0.792359 0.842376 0.008449
-0.035368 0.014650 0.008449
1.500952 0.824367 0.361320
0.673225 -0.003360 0.361320
0.576968 0.200000 0.303566
-0.014699 1.450000 -0.051434
-0.038365 1.500000 -0.065634
0.577706 0.808923 0.127193
-0.250020 -0.018804 0.127193
1.088840 0.835466 0.289200
0.261114 0.007739 0.289200
1.300584 0.823906 -0.481161
0.472858 -0.003821 -0.481161
0.727465 0.807013 -0.421622
-0.100262 -0.020713 -0.421622
0.159798 0.797859 0.282586
-0.667929 -0.029867 0.282586
1.272101 0.828003 0.458639
0.444374 0.000276 0.458639
0.806456 0.837252 0.154501
-0.021271 0.009526 0.154501
1.240345 0.832456 0.164634
0.412619 0.004729 0.164634
1.262926 0.825108 0.138045
0.435199 -0.002619 0.138045
0.105089 0.834667 -0.265180
-0.722638 0.006941 -0.265180
0.538703 0.836698 -0.464625
-0.289023 0.008971 -0.464625
0.236448 0.839287 0.077036
-0.591279 0.011560 0.077036
0.577778 0.800741 0.372269
-0.249948 -0.026986 0.372269
1.594161 0.820978 -0.200648
0.766435 -0.006748 -0.200648
0.668574 0.200000 -0.181076
0.668574 0.200000 -0.181076
0.076907 1.450000 -0.062743
0.053241 1.500000 -0.058009
1.129340 0.820816 -0.115485
0.301613 -0.006911 -0.115485
0.769210 0.855197 -0.199253
-0.058516 0.027471 -0.199253
1.254411 0.824791 0.408937
0.426684 -0.002936 0.408937
0.149127 0.799496 0.226683
-0.678600 -0.028231 0.226683
0.382593 0.832534 0.224157
-0.445133 0.004807 0.224157
LINES 100 341
2 0 1
2 2 3
6 4 5 6 7 8 9
2 10 11
2 12 13
2 14 15
2 16 17
5 18 19 20 21 22
2 23 24
2 25 26
2 27 28
2 29 30
2 31 32
2 33 34
2 35 36
2 37 38
2 39 40
2 41 42
2 43 44
2 45 46
2 47 48
2 49 50
2 51 52
2 53 54
2 55 56
2 57 58
2 59 60
2 61 62
2 63 64
2 65 66
2 67 68
2 69 70
2 71 72
2 73 74
5 75 76 77 78 79
2 80 81
2 82 83
2 84 85
2 86 87
6 88 89 90 91 92 93
2 94 95
2 96 97
2 98 99
2 100 101
2 102 103
2 104 105
2 106 107
2 108 109
2 110 111
2 112 113
2 114 115
2 116 117
2 118 119
5 120 121 122 123 124
2 125 126
2 127 128
2 129 130
2 131 132
2 133 134
5 135 136 137 138 139
2 140 141
2 142 143
2 144 145
5 146 147 148 149 150
2 151 152
2 153 154
6 155 156 157 158 159 160
2 161 162
2 163 164
2 165 166
6 167 168 169 170 171 172
2 173 174
5 175 176 177 178 179
2 180 181
2 182 183
2 184 185
2 186 187
2 188 189
2 190 191
2 192 193
5 194 195 196 197 198
2 199 200
2 201 202
2 203 204
2 205 206
2 207 208
2 209 210
2 211 212
2 213 214
2 215 216
2 217 218
2 219 220
2 221 222
2 223 224
6 225 226 227 228 229 230
2 231 232
2 233 234
2 235 236
2 237 238
2 239 240
CELL_DATA 100
SCALARS Radiative_path_type float 1
LOOKUP_TABLE path_type
1.0
1.0
0.5
1.0
1.0
1.0
1.0
0.5
1.0
1.0
1.0
1.0
1.0
1.0
1.0
1.0
1.0
1.0
1.0
1.0
1.0
1.0
1.0
1.0
1.0
1.0
1.0
1.0
1.0
1.0
1.0
1.0
1.0
1.0
0.5
1.0
1.0
1.0
1.0
0.5
1.0
1.0
1.0
1.0
1.0
1.0
1.0
1.0
1.0
1.0
1.0
1.0
1.0
0.5
1.0
1.0
1.0
1.0
1.0
0.5
1.0
1.0
1.0
0.5
1.0
1.0
0.5
1.0
1.0
1.0
0.5
1.0
0.5
1.0
1.0
1.0
1.0
1.0
1.0
1.0
0.5
1.0
1.0
1.0
1.0
1.0
1.0
1.0
1.0
1.0
1.0
1.0
1.0
1.0
0.5
1.0
1.0
1.0
1.0
1.0
LOOKUP_TABLE path_type 5
1.0 0.0 0.0 1.0
0.0 1.0 0.0 1.0
0.0 0.0 1.0 1.0
0.0 1.0 1.0 1.0
1.0 1.0 0.0 1.0
