# vtk DataFile Version 2.0
Radiative paths
ASCII
DATASET POLYDATA
POINTS 355 float
1.753541 1.065779 0.182140
0.692880 0.005119 0.182140
0.008970 1.450000 0.045358
0.008970 1.450000 0.045358
-0.014697 1.500000 0.040625
1.635901 1.058819 -0.424734
0.575241 -0.001842 -0.424734
0.025477 1.450000 -0.012411
0.025477 1.450000 -0.012411
0.006543 1.500000 0.001789
1.106235 1.036099 0.393905
0.045575 -0.024561 0.393905
1.267571 1.036878 -0.135811
0.206910 -0.023782 -0.135811
1.194186 1.053099 0.360526
0.133526 -0.007561 0.360526
-0.004457 1.450000 -0.053422
-0.009190 1.500000 -0.067622
0.675353 1.039885 0.199923
-0.385307 -0.020775 0.199923
1.289908 1.083261 -0.457497
0.229248 0.022601 -0.457497
-0.041006 1.450000 -0.052116
-0.050473 1.500000 -0.037916
0.477335 1.067351 -0.082143
-0.583325 0.006690 -0.082143
-0.036791 1.450000 0.054491
-0.036791 1.450000 0.054491
-0.017858 1.500000 0.059224
1.009998 1.084740 -0.196917
-0.050662 0.024079 -0.196917
-0.050662 1.450000 -0.061930
-0.050662 1.450000 -0.061930
-0.050662 1.500000 -0.057197
1.576196 1.066163 -0.385968
0.515536 0.005503 -0.385968
-0.031447 1.450000 0.024269
-0.050381 1.500000 0.038469
1.730995 1.071416 0.447765
0.670335 0.010756 0.447765
-0.010908 1.450000 0.039019
-0.010908 1.450000 0.039019
-0.034574 1.500000 0.024819
0.887746 1.082313 0.347546
-0.172915 0.021652 0.347546
-0.037698 1.450000 0.077112
-0.032964 1.500000 0.067645
0.944454 1.047630 0.276797
-0.116206 -0.013030 0.276797
0.022294 1.450000 -0.000203
0.022294 1.450000 -0.000203
0.027027 1.500000 -0.009670
1.715995 1.065000 -0.232619
0.655335 0.004340 -0.232619
-0.028944 1.450000 0.041093
-0.052611 1.500000 0.050560
1.539053 1.043484 -0.253665
0.478393 -0.017176 -0.253665
1.193200 1.060306 -0.402396
0.132540 -0.000355 -0.402396
-0.004761 1.450000 0.009504
-0.009494 1.500000 0.023704
1.022948 1.076156 0.281403
-0.037712 0.015496 0.281403
-0.037712 1.450000 0.009804
-0.037712 1.500000 0.000337
1.083717 1.054721 -0.317695
0.023057 -0.005939 -0.317695
0.023057 1.450000 -0.042037
0.023057 1.450000 -0.042037
0.023057 1.500000 -0.032570
1.244451 1.048969 -0.203545
0.183791 -0.011691 -0.203545
0.574263 1.095148 -0.123108
-0.486397 0.034488 -0.123108
-0.084391 1.450000 0.010894
-0.084391 1.450000 0.010894
-0.070191 1.500000 0.015628
1.293719 1.074326 -0.103646
0.233058 0.013666 -0.103646
-0.038887 1.450000 0.032327
-0.038887 1.450000 0.032327
-0.048354 1.500000 0.037060
0.498606 1.055158 0.111219
-0.562055 -0.005502 0.111219
-0.010905 1.450000 -0.026568
0.008029 1.500000 -0.031301
1.427680 1.078907 0.308096
0.367020 0.018246 0.308096
1.475300 1.073601 0.487167
0.414640 0.012941 0.487167
0.006515 1.450000 0.079042
-0.007685 1.500000 0.064842
1.064397 1.058457 0.130232
0.003737 -0.002203 0.130232
0.003737 1.450000 -0.007243
0.003737 1.450000 -0.007243
0.003737 1.500000 -0.011976
1.573999 1.075188 -0.307293
0.513339 0.014528 -0.307293
-0.030226 1.450000 -0.035510
-0.049159 1.500000 -0.026043
1.611340 1.061107 0.080714
0.550680 0.000447 0.080714
1.448572 1.067331 -0.081779
0.387912 0.006671 -0.081779
1.461241 1.070999 0.209894
0.400581 0.010339 0.209894
0.906604 1.066254 0.282846
-0.154056 0.005594 0.282846
-0.017319 1.450000 0.009372
-0.017319 1.450000 0.009372
-0.012585 1.500000 -0.000095
1.623170 1.053533 0.373471
0.562510 -0.007127 0.373471
0.010744 1.450000 -0.040353
0.010744 1.450000 -0.040353
-0.008189 1.500000 -0.054553
0.664683 1.042194 -0.127116
-0.395977 -0.018466 -0.127116
1.325600 1.066704 0.144585
0.264940 0.006044 0.144585
-0.008449 1.450000 0.007891
-0.017916 1.500000 0.003157
0.343115 1.067261 -0.166179
-0.717545 0.006601 -0.166179
-0.034336 1.450000 -0.029537
-0.034336 1.450000 -0.029537
-0.010669 1.500000 -0.024804
1.445560 1.071807 -0.286317
0.384899 0.011147 -0.286317
1.424150 1.079035 -0.434790
0.363490 0.018375 -0.434790
0.350053 1.062749 0.299726
-0.710607 0.002089 0.299726
-0.025262 1.450000 0.025588
-0.001596 1.500000 0.016121
0.753191 1.075164 -0.179815
-0.307469 0.014504 -0.179815
-0.035682 1.450000 -0.043921
-0.035682 1.450000 -0.043921
-0.026215 1.500000 -0.039188
0.931730 1.063160 0.479627
-0.128930 0.002500 0.479627
0.008100 1.450000 0.068537
0.012834 1.500000 0.054337
1.372997 1.041903 0.366267
0.312337 -0.018757 0.366267
0.491607 1.063129 -0.300673
-0.569054 0.002469 -0.300673
-0.020922 1.450000 -0.026607
-0.001989 1.500000 -0.017141
0.907995 1.064273 -0.416839
-0.152665 0.003613 -0.416839
-0.015741 1.450000 -0.006065
-0.011007 1.500000 0.008135
0.674873 1.047287 0.491136
-0.385787 -0.013373 0.491136
0.368629 1.046288 -0.415572
-0.692031 -0.014372 -0.415572
0.001105 1.450000 0.000310
0.001105 1.450000 0.000310
0.024772 1.500000 0.014510
0.349015 1.058613 -0.081524
-0.711645 -0.002047 -0.081524
-0.024343 1.450000 0.055937
-0.024343 1.450000 0.055937
-0.000676 1.500000 0.060670
1.293463 1.072933 0.400941
0.232803 0.012273 0.400941
-0.039407 1.450000 -0.007374
-0.048874 1.500000 -0.021573
0.942767 1.049315 -0.001869
-0.117894 -0.011346 -0.001869
0.020447 1.450000 -0.001869
0.025181 1.500000 -0.001869
1.735486 1.067700 0.291182
0.674826 0.007040 0.291182
-0.008175 1.450000 0.017982
-0.031841 1.500000 0.008515
0.358736 1.052845 0.101987
-0.701924 -0.007815 0.101987
-0.011891 1.450000 -0.036019
-0.011891 1.450000 -0.036019
0.011776 1.500000 -0.040753
0.732637 1.080049 -0.247140
-0.328023 0.019389 -0.247140
-0.057161 1.450000 0.023722
-0.057161 1.450000 0.023722
-0.047694 1.500000 0.033189
0.393615 1.031907 0.436737
-0.667045 -0.028753 0.436737
0.387617 1.036141 0.299021
-0.673044 -0.024520 0.299021
0.635972 1.057576 0.099535
-0.424688 -0.003084 0.099535
-0.012012 1.450000 -0.038024
-0.012012 1.450000 -0.038024
0.002188 1.500000 -0.042757
1.744184 1.056361 0.367466
0.683524 -0.004299 0.367466
-0.004845 1.450000 -0.045555
-0.004845 1.450000 -0.045555
-0.028511 1.500000 -0.059755
0.655570 1.049707 0.435055
-0.405090 -0.010953 0.435055
0.009820 1.450000 0.020144
0.024020 1.500000 0.005944
1.819213 1.052243 -0.001071
0.758553 -0.008417 -0.001071
0.629601 1.063632 0.043516
-0.431059 0.002971 0.043516
-0.020103 1.450000 0.043516
-0.005903 1.500000 0.043516
1.322108 1.064219 -0.079684
0.261448 0.003559 -0.079684
-0.012412 1.450000 0.057246
-0.012412 1.450000 0.057246
-0.021879 1.500000 0.061979
1.048181 1.067952 0.302793
-0.012479 0.007292 0.302793
-0.012479 1.450000 0.029640
-0.012479 1.500000 0.020173
0.470970 1.074676 -0.065030
-0.589691 0.014016 -0.065030
-0.045931 1.450000 -0.065030
-0.026998 1.500000 -0.065030
0.543137 1.034188 -0.342492
-0.517523 -0.026472 -0.342492
0.681379 1.036469 0.202264
-0.379281 -0.024191 0.202264
0.794666 1.053024 0.176517
-0.265994 -0.007636 0.176517
0.009985 1.450000 0.038527
0.019452 1.500000 0.033794
0.590006 1.090217 0.202553
-0.470654 0.029557 0.202553
-0.067248 1.450000 0.068085
-0.053048 1.500000 0.063351
0.456627 1.083945 0.050782
-0.604034 0.023284 0.050782
-0.063784 1.450000 0.050782
-0.044851 1.500000 0.050782
0.909509 1.058668 -0.226360
-0.151151 -0.001993 -0.226360
-0.013696 1.450000 0.048551
-0.008962 1.500000 0.058018
0.691150 1.025980 0.115186
-0.369510 -0.034680 0.115186
1.370148 1.049953 -0.410194
0.309488 -0.010707 -0.410194
0.807998 1.040262 -0.249900
-0.252662 -0.020398 -0.249900
1.803087 1.043803 -0.356881
0.742427 -0.016857 -0.356881
0.733036 0.002984 -0.351246
-0.313745 -1.064465 -0.229584
1.031764 1.069664 -0.406215
-0.028896 0.009003 -0.406215
-0.028896 1.450000 0.003028
-0.028896 1.500000 0.017228
1.615679 1.068868 -0.333956
0.555018 0.008208 -0.333956
0.009060 1.450000 -0.060977
-0.009873 1.500000 -0.051510
1.038307 1.066862 -0.086332
-0.022353 0.006202 -0.086332
-0.022353 1.450000 0.050348
-0.022353 1.500000 0.055081
0.957606 1.039245 0.086841
-0.103054 -0.021415 0.086841
0.545174 1.024388 -0.099132
-0.515486 -0.036272 -0.099132
0.439111 1.098603 -0.203467
-0.621550 0.037943 -0.203467
-0.086851 1.450000 -0.069792
-0.086851 1.450000 -0.069792
-0.067917 1.500000 -0.065059
1.081443 1.056984 -0.329610
0.020783 -0.003676 -0.329610
0.020783 1.450000 -0.054381
0.020783 1.450000 -0.054381
0.020783 1.500000 -0.044914
1.711542 1.070909 -0.022669
0.650881 0.010249 -0.022669
1.204876 1.065413 -0.334597
0.144216 0.004753 -0.334597
0.007399 1.450000 -0.060964
0.002666 1.500000 -0.051497
0.685961 1.029051 -0.115535
-0.374699 -0.031609 -0.115535
1.565173 1.067763 0.380342
0.504513 0.007103 0.380342
-0.041864 1.450000 -0.029441
-0.060797 1.500000 -0.043641
1.100153 1.046518 -0.305670
0.039493 -0.014142 -0.305670
0.471631 1.067507 -0.383003
-0.589029 0.006847 -0.383003
-0.042556 1.450000 0.026852
-0.042556 1.450000 0.026852
-0.023622 1.500000 0.041052
0.349965 1.069752 0.480731
-0.710695 0.009091 0.480731
-0.028665 1.450000 0.071513
-0.004999 1.500000 0.057313
0.314802 1.083291 -0.258427
-0.745859 0.022630 -0.258427
-0.070237 1.450000 0.011822
-0.046570 1.500000 0.021288
0.775290 1.058038 0.081073
-0.285371 -0.002622 0.081073
-0.010341 1.450000 -0.056441
-0.000874 1.500000 -0.061175
1.356850 1.055248 0.112198
0.296190 -0.005412 0.112198
0.897962 1.073613 0.199757
-0.162699 0.012953 0.199757
-0.026658 1.450000 0.063716
-0.026658 1.450000 0.063716
-0.021925 1.500000 0.058983
1.626692 1.066076 -0.457190
0.566032 0.005416 -0.457190
0.019016 1.450000 -0.046928
0.019016 1.450000 -0.046928
0.000083 1.500000 -0.032728
1.253434 1.043349 -0.160531
0.192774 -0.017312 -0.160531
1.109990 1.043150 0.195765
0.049329 -0.017510 0.195765
0.540202 1.025820 0.401703
-0.520458 -0.034840 0.401703
1.649641 1.059138 -0.198015
0.588981 -0.001523 -0.198015
1.072854 1.052742 -0.409183
0.012194 -0.007919 -0.409183
0.012194 1.450000 0.004866
0.012194 1.450000 0.004866
0.012194 1.500000 0.019066
1.431795 1.072735 0.100502
0.371134 0.012074 0.100502
0.394089 1.032609 -0.190370
-0.666571 -0.028051 -0.190370
0.669303 1.040313 -0.037801
-0.391357 -0.020347 -0.037801
0.962041 1.034460 0.232901
-0.098619 -0.026200 0.232901
1.610099 1.060032 0.395677
0.549439 -0.000628 0.395677
0.000134 1.450000 -0.016301
-0.018799 1.500000 -0.030501
1.316895 1.072793 0.206341
0.256235 0.012133 0.206341
-0.016002 1.450000 0.070223
-0.025468 1.500000 0.065490
LINES 100 455
5 0 1 2 3 4
5 5 6 7 8 9
2 10 11
2 12 13
4 14 15 16 17
2 18 19
4 20 21 22 23
5 24 25 26 27 28
5 29 30 31 32 33
4 34 35 36 37
5 38 39 40 41 42
4 43 44 45 46
5 47 48 49 50 51
4 52 53 54 55
2 56 57
4 58 59 60 61
4 62 63 64 65
5 66 67 68 69 70
2 71 72
5 73 74 75 76 77
5 78 79 80 81 82
4 83 84 85 86
2 87 88
4 89 90 91 92
5 93 94 95 96 97
4 98 99 100 101
2 102 103
2 104 105
2 106 107
5 108 109 110 111 112
5 113 114 115 116 117
2 118 119
4 120 121 122 123
5 124 125 126 127 128
2 129 130
2 131 132
4 133 134 135 136
5 137 138 139 140 141
4 142 143 144 145
2 146 147
4 148 149 150 151
4 152 153 154 155
2 156 157
5 158 159 160 161 162
5 163 164 165 166 167
4 168 169 170 171
4 172 173 174 175
4 176 177 178 179
5 180 181 182 183 184
5 185 186 187 188 189
2 190 191
2 192 193
5 194 195 196 197 198
5 199 200 201 202 203
4 204 205 206 207
2 208 209
4 210 211 212 213
5 214 215 216 217 218
4 219 220 221 222
4 223 224 225 226
2 227 228
2 229 230
4 231 232 233 234
4 235 236 237 238
4 239 240 241 242
4 243 244 245 246
2 247 248
2 249 250
2 251 252
4 253 254 255 256
4 257 258 259 260
4 261 262 263 264
4 265 266 267 268
2 269 270
2 271 272
5 273 274 275 276 277
5 278 279 280 281 282
2 283 284
4 285 286 287 288
2 289 290
4 291 292 293 294
2 295 296
5 297 298 299 300 301
4 302 303 304 305
4 306 307 308 309
4 310 311 312 313
2 314 315
5 316 317 318 319 320
5 321 322 323 324 325
2 326 327
2 328 329
2 330 331
2 332 333
5 334 335 336 337 338
2 339 340
2 341 342
2 343 344
2 345 346
4 347 348 349 350
4 351 352 353 354
CELL_DATA 100
SCALARS Radiative_path_type float 1
LOOKUP_TABLE path_type
0.5
0.5
1.0
1.0
0.5
1.0
0.5
0.5
0.5
0.5
0.5
0.5
0.5
0.5
1.0
0.5
0.5
0.5
1.0
0.5
0.5
0.5
1.0
0.5
0.5
0.5
1.0
1.0
1.0
0.5
0.5
1.0
0.5
0.5
1.0
1.0
0.5
0.5
0.5
1.0
0.5
0.5
1.0
0.5
0.5
0.5
0.5
0.5
0.5
0.5
1.0
1.0
0.5
0.5
0.5
1.0
0.5
0.5
0.5
0.5
1.0
1.0
0.5
0.5
0.5
0.5
1.0
1.0
1.0
0.75
0.5
0.5
0.5
1.0
1.0
0.5
0.5
1.0
0.5
1.0
0.5
1.0
0.5
0.5
0.5
0.5
1.0
0.5
0.5
1.0
1.0
1.0
1.0
0.5
1.0
1.0
1.0
1.0
0.5
0.5
LOOKUP_TABLE path_type 5
1.0 0.0 0.0 1.0
0.0 1.0 0.0 1.0
0.0 0.0 1.0 1.0
0.0 1.0 1.0 1.0
1.0 1.0 0.0 1.0
