# vtk DataFile Version 2.0
Radiative paths
ASCII
DATASET POLYDATA
POINTS 364 float
-0.366166 1.051858 0.182157
0.694494 -0.008802 0.182157
0.003994 1.450000 0.044057
-0.019673 1.500000 0.039324
-1.834327 1.055469 -0.467913
-0.773666 -0.005191 -0.467913
-0.084876 1.450000 -0.054638
-0.084876 1.450000 -0.054638
-0.061209 1.500000 -0.040438
-1.278464 1.080576 -0.131431
-0.217804 0.019916 -0.131431
0.052959 1.450000 0.003951
0.062425 1.500000 0.008684
-1.377243 1.050612 0.051379
-0.316583 -0.010048 0.051379
-1.144579 1.084809 -0.199463
-0.083919 0.024149 -0.199463
0.051062 1.450000 -0.064483
0.055795 1.500000 -0.059749
-0.617864 1.069951 -0.278256
0.442796 0.009290 -0.278256
0.033634 1.450000 -0.005481
0.033634 1.450000 -0.005481
0.019434 1.500000 0.003985
-1.644123 1.054096 -0.082164
-0.583463 -0.006564 -0.082164
-1.141199 1.082591 -0.279659
-0.080539 0.021931 -0.279659
0.054652 1.450000 -0.009278
0.059385 1.500000 0.000189
-0.520564 1.043626 0.160827
0.540096 -0.017034 0.160827
-0.015421 1.450000 0.021948
-0.034354 1.500000 0.017215
-1.838455 1.044658 -0.247108
-0.777795 -0.016002 -0.247108
-0.083887 1.450000 0.030455
-0.060220 1.500000 0.039921
-1.612446 1.061837 0.410342
-0.551785 0.001177 0.410342
-0.003164 1.450000 -0.001123
0.015769 1.500000 -0.015323
-1.239867 1.054076 0.347521
-0.179207 -0.006585 0.347521
-0.041317 1.450000 0.071741
-0.036584 1.500000 0.062274
-1.175264 1.069857 0.276800
-0.114604 0.009197 0.276800
0.021792 1.450000 0.004008
0.026526 1.500000 -0.005458
-1.544276 1.046661 0.161347
-0.483616 -0.013999 0.161347
-1.153103 1.080946 0.185259
-0.092442 0.020286 0.185259
0.042904 1.450000 0.049912
0.042904 1.450000 0.049912
0.047637 1.500000 0.045179
-0.925046 1.053740 -0.402376
0.135614 -0.006920 -0.402376
-0.002308 1.450000 0.011389
-0.002308 1.450000 0.011389
-0.007041 1.500000 0.025589
-0.876728 1.076031 -0.397113
0.183932 0.015371 -0.397113
0.048121 1.450000 0.010322
0.043387 1.500000 0.024522
-1.619392 1.056124 -0.384356
-0.558732 -0.004537 -0.384356
-0.007947 1.450000 0.028733
-0.007947 1.450000 0.028733
0.010986 1.500000 0.042933
-0.544178 1.035836 0.480811
0.516483 -0.024824 0.480811
-0.735753 1.075672 -0.383464
0.324907 0.015012 -0.383464
0.053216 1.450000 0.024073
0.043749 1.500000 0.038273
-0.822367 1.034353 -0.103639
0.238293 -0.026307 -0.103639
-1.015028 1.079562 -0.028718
0.045632 0.018902 -0.028718
0.045632 1.450000 -0.028718
0.045632 1.500000 -0.028718
-1.247346 1.040967 -0.077634
-0.186686 -0.019693 -0.077634
-1.083246 1.044119 0.383400
-0.022586 -0.016541 0.383400
-0.022586 1.450000 -0.033098
-0.022586 1.450000 -0.033098
-0.022586 1.500000 -0.047298
-0.598050 1.082183 0.141881
0.462610 0.021523 0.141881
0.056923 1.450000 0.006652
0.056923 1.450000 0.006652
0.042723 1.500000 0.001919
-1.733282 1.067198 -0.423610
-0.672621 0.006538 -0.423610
0.010617 1.450000 -0.013666
0.034284 1.500000 0.000534
-0.589334 1.088388 0.431093
0.471326 0.027728 0.431093
0.067401 1.450000 0.027167
0.053201 1.500000 0.012967
-0.666446 1.038687 -0.081762
0.394214 -0.021973 -0.081762
-0.659729 1.049617 0.209913
0.400931 -0.011043 0.209913
-0.014005 1.450000 0.071601
-0.028205 1.500000 0.066868
-1.710903 1.074791 0.211625
-0.650243 0.014131 0.211625
0.029402 1.450000 0.075696
0.029402 1.450000 0.075696
0.053069 1.500000 0.070962
-1.290386 1.075628 0.265361
-0.229726 0.014968 0.265361
0.041974 1.450000 -0.006338
0.041974 1.450000 -0.006338
0.051440 1.500000 -0.015805
-0.794390 1.051415 0.144586
0.266270 -0.009245 0.144586
-0.010014 1.450000 0.006444
-0.010014 1.450000 0.006444
-0.019481 1.500000 0.001711
-1.182048 1.070022 -0.176719
-0.121387 0.009362 -0.176719
0.014993 1.450000 -0.040339
0.019726 1.500000 -0.035606
-0.671444 1.039202 -0.286319
0.389216 -0.021458 -0.286319
-0.691298 1.028458 -0.434812
0.369363 -0.032202 -0.434812
-1.772621 1.061967 0.299699
-0.711961 0.001307 0.299699
-0.026246 1.450000 0.025414
-0.002580 1.500000 0.015947
-1.371543 1.054414 -0.179808
-0.310883 -0.006247 -0.179808
-1.205310 1.054301 -0.234932
-0.144650 -0.006359 -0.234932
-0.006782 1.450000 0.040806
-0.002048 1.500000 0.050272
-1.440032 1.074481 -0.297469
-0.379371 0.013821 -0.297469
-0.919440 1.051032 -0.369363
0.141220 -0.009628 -0.369363
0.003042 1.450000 0.045171
0.003042 1.450000 0.045171
-0.001691 1.500000 0.059371
-1.235047 1.046599 -0.099187
-0.174387 -0.014061 -0.099187
-0.035790 1.450000 0.039411
-0.035790 1.450000 0.039411
-0.031056 1.500000 0.044145
-0.653112 1.042292 -0.214988
0.407548 -0.018369 -0.214988
-0.009468 1.450000 0.063024
-0.009468 1.450000 0.063024
-0.023668 1.500000 0.072490
-1.253707 1.043596 -0.166787
-0.193047 -0.017065 -0.166787
-0.978298 1.026906 -0.394301
0.082362 -0.033754 -0.394301
-1.520850 1.051240 0.133042
-0.460189 -0.009421 0.133042
-0.897109 1.072923 0.179991
0.163552 0.012263 0.179991
0.027446 1.450000 0.043885
0.027446 1.450000 0.043885
0.022713 1.500000 0.039152
-0.446693 1.088929 -0.269596
0.613968 0.028269 -0.269596
0.075605 1.450000 -0.000415
0.056672 1.500000 0.009052
-0.380385 1.036272 0.077270
0.680275 -0.024388 0.077270
-0.457329 1.077531 -0.227578
0.603331 0.016871 -0.227578
0.060653 1.450000 0.043761
0.041720 1.500000 0.053228
-1.484924 1.054236 0.383219
-0.424264 -0.006425 0.383219
-0.010640 1.450000 -0.030406
0.003560 1.500000 -0.044606
-1.389289 1.042651 -0.247169
-0.328629 -0.018009 -0.247169
-0.909382 1.065965 0.158820
0.151278 0.005305 0.158820
0.014514 1.450000 0.022056
0.009781 1.500000 0.017322
-1.369904 1.055272 0.186188
-0.309244 -0.005388 0.186188
-1.096180 1.046376 0.150438
-0.035520 -0.014284 0.150438
-0.035520 1.450000 0.011819
-0.035520 1.450000 0.011819
-0.035520 1.500000 0.007085
-0.674886 1.030059 -0.220696
0.385775 -0.030601 -0.220696
-0.742681 1.079464 -0.156807
0.317980 0.018804 -0.156807
0.047007 1.450000 -0.021320
0.047007 1.450000 -0.021320
0.037540 1.500000 -0.016587
-0.786004 1.057296 -0.170799
0.274656 -0.003365 -0.170799
-0.000514 1.450000 -0.033214
-0.000514 1.450000 -0.033214
-0.009981 1.500000 -0.028481
-1.492339 1.059184 0.043516
-0.431679 -0.001476 0.043516
-0.751158 1.074141 -0.016741
0.309503 0.013480 -0.016741
0.037522 1.450000 -0.016741
0.028055 1.500000 -0.016741
-0.587191 1.082574 0.227690
0.473469 0.021914 0.227690
0.067892 1.450000 -0.042695
0.053692 1.500000 -0.052161
-0.535593 1.036947 -0.322565
0.525067 -0.023713 -0.322565
-1.675138 1.048785 -0.108093
-0.614478 -0.011875 -0.108093
-1.482999 1.064278 0.190861
-0.422338 0.003618 0.190861
-0.577872 1.091469 -0.259017
0.482788 0.030808 -0.259017
0.079737 1.450000 0.009683
0.065537 1.500000 0.019150
-1.477430 1.063060 -0.006471
-0.416769 0.002400 -0.006471
-0.619664 1.072376 0.310437
0.440996 0.011715 0.310437
0.032523 1.450000 0.038122
0.018323 1.500000 0.028655
-1.769252 1.060904 -0.017268
-0.708592 0.000244 -0.017268
-1.728835 1.064920 0.084549
-0.668174 0.004260 0.084549
-0.511462 1.054878 -0.343862
0.549198 -0.005783 -0.343862
-0.002058 1.450000 -0.068234
-0.020991 1.500000 -0.058767
-1.678111 1.044534 0.235082
-0.617451 -0.016126 0.235082
-1.728746 1.067926 0.062563
-0.668086 0.007266 0.062563
-1.369697 1.049937 0.087935
-0.309037 -0.010723 0.087935
-0.444542 1.088340 0.078045
0.616118 0.027680 0.078045
0.077533 1.450000 -0.056601
0.058600 1.500000 -0.061334
-0.722971 1.087490 0.112972
0.337689 0.026830 0.112972
0.068236 1.450000 -0.021755
0.068236 1.450000 -0.021755
0.058769 1.500000 -0.026488
-0.507224 1.056573 -0.334027
0.553437 -0.004087 -0.334027
0.002822 1.450000 -0.058720
-0.016111 1.500000 -0.049253
-1.080830 1.049202 -0.086332
-0.020170 -0.011458 -0.086332
-0.020170 1.450000 0.052019
-0.020170 1.450000 0.052019
-0.020170 1.500000 0.056753
-1.047149 1.066257 0.058930
0.013511 0.005596 0.058930
0.013511 1.450000 0.058930
0.013511 1.500000 0.058930
-1.540838 1.042952 0.076768
-0.480178 -0.017708 0.076768
-1.391479 1.050429 -0.455019
-0.330819 -0.010231 -0.455019
-1.043454 1.072883 -0.329610
0.017207 0.012222 -0.329610
0.017207 1.450000 -0.057391
0.017207 1.500000 -0.047924
-0.859185 1.089968 -0.430969
0.201475 0.029308 -0.430969
0.066983 1.450000 -0.027492
0.066983 1.450000 -0.027492
0.062250 1.500000 -0.013292
-1.661193 1.057125 0.207041
-0.600533 -0.003535 0.207041
-0.050128 1.450000 0.069440
-0.031195 1.500000 0.064707
-0.542520 1.020884 0.380201
0.518141 -0.039776 0.380201
-1.337797 1.072521 0.485488
-0.277137 0.011861 0.485488
-0.004849 1.450000 0.077057
0.004617 1.500000 0.062857
-1.648019 1.049446 -0.383136
-0.587359 -0.011214 -0.383136
-0.034046 1.450000 0.031848
-0.034046 1.450000 0.031848
-0.015113 1.500000 0.046048
-1.777919 1.067885 0.480532
-0.717259 0.007225 0.480532
-0.034345 1.450000 0.070784
-0.010679 1.500000 0.056584
-1.811879 1.050603 -0.258470
-0.751219 -0.010057 -0.258470
-0.060126 1.450000 0.017968
-0.060125 1.450000 0.017968
-0.036459 1.500000 0.027434
-0.766339 1.076385 0.488704
0.294321 0.015725 0.488704
0.022765 1.450000 0.081370
0.013299 1.500000 0.067170
-1.610832 1.069368 -0.455311
-0.550172 0.008708 -0.455311
-0.004403 1.450000 -0.045984
0.014531 1.500000 -0.031784
-1.150764 1.079340 -0.037604
-0.090104 0.018680 -0.037604
0.045394 1.450000 -0.037604
0.045394 1.450000 -0.037604
0.050128 1.500000 -0.037604
-0.857187 1.089785 -0.144400
0.203473 0.029125 -0.144400
0.068964 1.450000 -0.009890
0.068964 1.450000 -0.009890
0.064230 1.500000 -0.005157
-1.139267 1.085897 -0.184434
-0.078607 0.025237 -0.184434
0.056271 1.450000 -0.049557
0.056271 1.450000 -0.049557
0.061004 1.500000 -0.044824
-1.151462 1.081313 0.181173
-0.090802 0.020653 0.181173
0.044510 1.450000 0.045861
0.044510 1.450000 0.045861
0.049243 1.500000 0.041128
-1.466386 1.071486 0.459041
-0.405726 0.010826 0.459041
0.003000 1.450000 0.050315
0.017200 1.500000 0.036115
-0.921951 1.059111 0.037889
0.138709 -0.001549 0.037889
0.001296 1.450000 0.037889
0.001296 1.450000 0.037889
-0.003438 1.500000 0.037889
-0.505496 1.047452 0.395583
0.555164 -0.013208 0.395583
0.001096 1.450000 -0.019968
0.001096 1.450000 -0.019968
-0.017837 1.500000 -0.034168
-0.945820 1.046699 -0.121146
0.114840 -0.013961 -0.121146
-0.023748 1.450000 0.017443
-0.028482 1.500000 0.022176
-0.509339 1.057265 0.353304
0.551321 -0.003395 0.353304
0.000969 1.450000 0.078128
-0.017965 1.500000 0.068662
-0.767708 1.062552 -0.090186
0.292952 0.001892 -0.090186
0.018777 1.450000 0.046902
0.009310 1.500000 0.051635
-0.678474 1.033377 0.418101
0.382186 -0.027283 0.418101
LINES 100 464
4 0 1 2 3
5 4 5 6 7 8
4 9 10 11 12
2 13 14
4 15 16 17 18
5 19 20 21 22 23
2 24 25
4 26 27 28 29
4 30 31 32 33
4 34 35 36 37
4 38 39 40 41
4 42 43 44 45
4 46 47 48 49
2 50 51
5 52 53 54 55 56
5 57 58 59 60 61
4 62 63 64 65
5 66 67 68 69 70
2 71 72
4 73 74 75 76
2 77 78
4 79 80 81 82
2 83 84
5 85 86 87 88 89
5 90 91 92 93 94
4 95 96 97 98
4 99 100 101 102
2 103 104
4 105 106 107 108
5 109 110 111 112 113
5 114 115 116 117 118
5 119 120 121 122 123
4 124 125 126 127
2 128 129
2 130 131
4 132 133 134 135
2 136 137
4 138 139 140 141
2 142 143
5 144 145 146 147 148
5 149 150 151 152 153
5 154 155 156 157 158
2 159 160
2 161 162
2 163 164
5 165 166 167 168 169
4 170 171 172 173
2 174 175
4 176 177 178 179
4 180 181 182 183
2 184 185
4 186 187 188 189
2 190 191
5 192 193 194 195 196
2 197 198
5 199 200 201 202 203
5 204 205 206 207 208
2 209 210
4 211 212 213 214
4 215 216 217 218
2 219 220
2 221 222
2 223 224
4 225 226 227 228
2 229 230
4 231 232 233 234
2 235 236
2 237 238
4 239 240 241 242
2 243 244
2 245 246
2 247 248
4 249 250 251 252
5 253 254 255 256 257
4 258 259 260 261
5 262 263 264 265 266
4 267 268 269 270
2 271 272
2 273 274
4 275 276 277 278
5 279 280 281 282 283
4 284 285 286 287
2 288 289
4 290 291 292 293
5 294 295 296 297 298
4 299 300 301 302
5 303 304 305 306 307
4 308 309 310 311
4 312 313 314 315
5 316 317 318 319 320
5 321 322 323 324 325
5 326 327 328 329 330
5 331 332 333 334 335
4 336 337 338 339
5 340 341 342 343 344
5 345 346 347 348 349
4 350 351 352 353
4 354 355 356 357
4 358 359 360 361
2 362 363
CELL_DATA 100
SCALARS Radiative_path_type float 1
LOOKUP_TABLE path_type
0.5
0.5
0.5
1.0
0.5
0.5
1.0
0.5
0.5
0.5
0.5
0.5
0.5
1.0
0.5
0.5
0.5
0.5
1.0
0.5
1.0
0.5
1.0
0.5
0.5
0.5
0.5
1.0
0.5
0.5
0.5
0.5
0.5
1.0
1.0
0.5
1.0
0.5
1.0
0.5
0.5
0.5
1.0
1.0
1.0
0.5
0.5
1.0
0.5
0.5
1.0
0.5
1.0
0.5
1.0
0.5
0.5
1.0
0.5
0.5
1.0
1.0
1.0
0.5
1.0
0.5
1.0
1.0
0.5
1.0
1.0
1.0
0.5
0.5
0.5
0.5
0.5
1.0
1.0
0.5
0.5
0.5
1.0
0.5
0.5
0.5
0.5
0.5
0.5
0.5
0.5
0.5
0.5
0.5
0.5
0.5
0.5
0.5
0.5
1.0
LOOKUP_TABLE path_type 5
1.0 0.0 0.0 1.0
0.0 1.0 0.0 1.0
0.0 0.0 1.0 1.0
0.0 1.0 1.0 1.0
1.0 1.0 0.0 1.0
