# vtk DataFile Version 2.0
Radiative paths
ASCII
DATASET POLYDATA
POINTS 364 float
-0.154034 0.839726 0.182157
0.694494 -0.008802 0.182157
0.003994 1.450000 0.044057
-0.019673 1.500000 0.039324
-1.622195 0.843337 -0.467913
-0.773666 -0.005191 -0.467913
-0.469572 0.817726 0.084394
0.378956 -0.030802 0.084394
-0.093748 0.877014 -0.083868
0.754780 0.028486 -0.083868
0.081930 1.450000 0.050702
0.058264 1.500000 0.055435
-0.613352 0.819236 0.253627
0.235176 -0.029292 0.253627
-0.671785 0.861148 -0.073845
0.176743 0.012620 -0.073845
0.040671 1.450000 0.062227
0.035938 1.500000 0.066961
-0.644392 0.872049 0.229745
0.204136 0.023520 0.229745
0.069096 1.450000 -0.040335
0.064363 1.500000 -0.049802
-0.874151 0.829666 0.377079
-0.025622 -0.018863 0.377079
-0.025622 1.450000 -0.040078
-0.025622 1.500000 -0.054278
-0.943394 0.868600 0.197219
-0.094865 0.020072 0.197219
0.040501 1.450000 0.061852
0.040501 1.450000 0.061852
0.045234 1.500000 0.057119
-1.082605 0.870183 0.339006
-0.234077 0.021655 0.339006
0.036356 1.450000 0.068572
0.036356 1.450000 0.068572
0.045823 1.500000 0.059106
-1.558814 0.847172 -0.117375
-0.710286 -0.001356 -0.117375
-1.400313 0.849705 0.410342
-0.551785 0.001177 0.410342
-0.003164 1.450000 -0.001123
0.015769 1.500000 -0.015323
-1.027735 0.841944 0.347521
-0.179207 -0.006585 0.347521
-0.041317 1.450000 0.071741
-0.036584 1.500000 0.062274
-0.963132 0.857725 0.276800
-0.114604 0.009197 0.276800
0.021792 1.450000 0.004008
0.026526 1.500000 -0.005458
-1.332144 0.834529 0.161347
-0.483616 -0.013999 0.161347
-0.940971 0.868814 0.185259
-0.092442 0.020286 0.185259
0.042904 1.450000 0.049912
0.042904 1.450000 0.049912
0.047637 1.500000 0.045179
-0.712914 0.841608 -0.402376
0.135614 -0.006920 -0.402376
-0.002308 1.450000 0.011389
-0.002308 1.450000 0.011389
-0.007041 1.500000 0.025589
-0.664596 0.863899 -0.397113
0.183932 0.015371 -0.397113
0.048121 1.450000 0.010322
0.043387 1.500000 0.024522
-1.407260 0.843992 -0.384356
-0.558732 -0.004537 -0.384356
-0.007947 1.450000 0.028733
-0.007947 1.450000 0.028733
0.010986 1.500000 0.042933
-0.332046 0.823704 0.480811
0.516483 -0.024824 0.480811
-0.523621 0.863540 -0.383464
0.324907 0.015012 -0.383464
0.053216 1.450000 0.024073
0.043749 1.500000 0.038273
-0.610235 0.822221 -0.103639
0.238293 -0.026307 -0.103639
-0.802896 0.867430 -0.028718
0.045632 0.018902 -0.028718
0.045632 1.450000 -0.028718
0.045632 1.500000 -0.028718
-1.035214 0.828835 -0.077634
-0.186686 -0.019693 -0.077634
-0.871114 0.831987 0.383400
-0.022586 -0.016541 0.383400
-0.022586 1.450000 -0.033098
-0.022586 1.450000 -0.033098
-0.022586 1.500000 -0.047298
-0.385918 0.870051 0.141881
0.462610 0.021523 0.141881
0.056923 1.450000 0.006652
0.056923 1.450000 0.006652
0.042723 1.500000 0.001919
-1.521150 0.855066 -0.423610
-0.672621 0.006538 -0.423610
0.010617 1.450000 -0.013666
0.034284 1.500000 0.000534
-0.377202 0.876256 0.431093
0.471326 0.027728 0.431093
0.067401 1.450000 0.027167
0.053201 1.500000 0.012967
-0.454314 0.826555 -0.081762
0.394214 -0.021973 -0.081762
-0.447597 0.837485 0.209913
0.400931 -0.011043 0.209913
-0.014005 1.450000 0.071601
-0.028205 1.500000 0.066868
-1.498771 0.862659 0.211625
-0.650243 0.014131 0.211625
0.029402 1.450000 0.075696
0.029402 1.450000 0.075696
0.053069 1.500000 0.070962
-1.078254 0.863496 0.265361
-0.229726 0.014968 0.265361
0.041974 1.450000 -0.006338
0.041974 1.450000 -0.006338
0.051440 1.500000 -0.015805
-0.582258 0.839283 0.144586
0.266270 -0.009245 0.144586
-0.010014 1.450000 0.006444
-0.010014 1.450000 0.006444
-0.019481 1.500000 0.001711
-0.969916 0.857890 -0.176719
-0.121387 0.009362 -0.176719
0.014993 1.450000 -0.040339
0.019726 1.500000 -0.035606
-0.459312 0.827070 -0.286319
0.389216 -0.021458 -0.286319
-0.479166 0.816326 -0.434812
0.369363 -0.032202 -0.434812
-1.560489 0.849835 0.299699
-0.711961 0.001307 0.299699
-1.626931 0.835506 0.121767
-0.778403 -0.013022 0.121767
-1.159411 0.842282 -0.179808
-0.310883 -0.006247 -0.179808
-0.035167 1.450000 -0.041950
-0.025700 1.500000 -0.037216
-0.177845 0.817673 -0.082822
0.670684 -0.030855 -0.082822
-1.227900 0.862349 -0.297469
-0.379371 0.013821 -0.297469
0.028504 1.450000 -0.025552
0.042704 1.500000 -0.016086
-0.758327 0.822969 0.121558
0.090201 -0.025559 0.121558
-1.608501 0.840476 -0.154778
-0.759972 -0.008052 -0.154778
-0.422144 0.847394 -0.417549
0.426384 -0.001134 -0.417549
0.014262 1.450000 -0.005426
0.000062 1.500000 0.008774
-0.127244 0.850273 0.225017
0.721284 0.001745 0.225017
0.035777 1.450000 -0.049186
0.012110 1.500000 -0.058652
-1.041575 0.831463 -0.166787
-0.193047 -0.017065 -0.166787
-0.766166 0.814774 -0.394301
0.082362 -0.033754 -0.394301
-1.308718 0.839108 0.133042
-0.460189 -0.009421 0.133042
-0.045714 1.450000 -0.005117
-0.045714 1.450000 -0.005117
-0.031514 1.500000 -0.009850
-1.137242 0.844202 -0.089829
-0.288714 -0.004327 -0.089829
-0.013362 1.450000 0.047847
-0.003895 1.500000 0.052580
-0.816045 0.858282 0.074494
0.032483 0.009754 0.074494
0.032483 1.450000 -0.061849
0.032483 1.450000 -0.061849
0.032483 1.500000 -0.066583
-0.790449 0.877088 -0.322636
0.058080 0.028560 -0.322636
0.058080 1.450000 -0.053510
0.058080 1.500000 -0.044044
-1.614226 0.841361 0.310344
-0.765697 -0.007167 0.310344
-0.446117 0.832398 0.100538
0.402411 -0.016130 0.100538
-0.013970 1.450000 -0.038256
-0.028170 1.500000 -0.042989
-1.148454 0.843619 -0.427079
-0.299926 -0.004909 -0.427079
-0.024463 1.450000 -0.013885
-0.014997 1.500000 0.000315
-1.515161 0.857857 0.298996
-0.666633 0.009328 0.298996
0.015285 1.450000 0.026229
0.038952 1.500000 0.016762
-1.583810 0.842390 0.109524
-0.735282 -0.006139 0.109524
-0.462754 0.817927 -0.220696
0.385775 -0.030601 -0.220696
-0.530548 0.867332 -0.156807
0.317980 0.018804 -0.156807
0.047007 1.450000 -0.021320
0.047007 1.450000 -0.021320
0.037540 1.500000 -0.016587
-0.573872 0.845164 -0.170799
0.274656 -0.003365 -0.170799
-0.000514 1.450000 -0.033214
-0.000514 1.450000 -0.033214
-0.009981 1.500000 -0.028481
-1.280207 0.847052 0.043516
-0.431679 -0.001476 0.043516
-0.019459 1.450000 0.043516
-0.019459 1.450000 0.043516
-0.005259 1.500000 0.043516
-1.288215 0.844970 0.022666
-0.439687 -0.003558 0.022666
-0.026877 1.450000 0.022666
-0.012677 1.500000 0.022666
-0.862481 0.844758 0.302793
-0.013953 -0.003770 0.302793
-0.013953 1.450000 0.027546
-0.013953 1.500000 0.018079
-1.441777 0.843102 -0.065030
-0.593248 -0.005427 -0.065030
-0.042127 1.450000 -0.065030
-0.042127 1.450000 -0.065030
-0.023194 1.500000 -0.065030
-0.561142 0.850318 -0.008265
0.287386 0.001790 -0.008265
0.013192 1.450000 -0.008265
0.003725 1.500000 -0.008265
-1.213618 0.864363 0.015733
-0.365089 0.015835 0.015733
0.042213 1.450000 0.015733
0.056413 1.500000 0.015733
-0.756362 0.827367 0.184379
0.092166 -0.021161 0.184379
-0.701864 0.848774 -0.106630
0.146665 0.000246 -0.106630
0.009421 1.450000 0.030613
0.009421 1.450000 0.030613
0.004688 1.500000 0.035346
-0.471841 0.816766 0.410563
0.376687 -0.031762 0.410563
-1.465979 0.832402 0.235082
-0.617451 -0.016126 0.235082
-1.516614 0.855794 0.062563
-0.668086 0.007266 0.062563
0.014808 1.450000 0.062563
0.038475 1.500000 0.062563
-0.232410 0.876208 0.078045
0.616118 0.027680 0.078045
0.077533 1.450000 -0.056601
0.058600 1.500000 -0.061334
-0.510839 0.875358 0.112972
0.337689 0.026830 0.112972
0.068236 1.450000 -0.021755
0.068236 1.450000 -0.021755
0.058769 1.500000 -0.026488
-0.295092 0.844441 -0.334027
0.553437 -0.004087 -0.334027
0.002822 1.450000 -0.058720
-0.016111 1.500000 -0.049253
-0.868698 0.837070 -0.086332
-0.020170 -0.011458 -0.086332
-0.020170 1.450000 0.052019
-0.020170 1.450000 0.052019
-0.020170 1.500000 0.056753
-0.835017 0.854125 0.058930
0.013511 0.005596 0.058930
0.013511 1.450000 0.058930
0.013511 1.500000 0.058930
-1.328706 0.830820 0.076768
-0.480178 -0.017708 0.076768
-1.179347 0.838297 -0.455019
-0.330819 -0.010231 -0.455019
-0.831322 0.860751 -0.329610
0.017207 0.012222 -0.329610
0.017207 1.450000 -0.057391
0.017207 1.500000 -0.047924
-0.647053 0.877836 -0.430969
0.201475 0.029308 -0.430969
0.066983 1.450000 -0.027492
0.066983 1.450000 -0.027492
0.062250 1.500000 -0.013292
-1.449061 0.844993 0.207041
-0.600533 -0.003535 0.207041
-0.050128 1.450000 0.069440
-0.031195 1.500000 0.064707
-0.330387 0.808752 0.380201
0.518141 -0.039776 0.380201
-1.125665 0.860389 0.485488
-0.277137 0.011861 0.485488
-0.004849 1.450000 0.077057
0.004617 1.500000 0.062857
-1.435887 0.837314 -0.383136
-0.587359 -0.011214 -0.383136
-0.034046 1.450000 0.031848
-0.034046 1.450000 0.031848
-0.015113 1.500000 0.046048
-1.565787 0.855753 0.480532
-0.717259 0.007225 0.480532
-0.451812 0.829063 0.100793
0.396717 -0.019465 0.100793
-1.599747 0.838471 -0.258470
-0.751219 -0.010057 -0.258470
-0.884072 0.833805 -0.065856
-0.035544 -0.014723 -0.065856
-0.035544 1.450000 -0.065856
-0.035544 1.500000 -0.065856
-0.475908 0.818363 -0.164492
0.372621 -0.030165 -0.164492
-0.552145 0.853446 0.112192
0.296383 0.004918 0.112192
0.022781 1.450000 -0.024609
0.022781 1.450000 -0.024609
0.013314 1.500000 -0.029342
-0.938632 0.867208 -0.037604
-0.090104 0.018680 -0.037604
0.045394 1.450000 -0.037604
0.045394 1.450000 -0.037604
0.050128 1.500000 -0.037604
-0.645055 0.877653 -0.144400
0.203473 0.029125 -0.144400
0.068964 1.450000 -0.009890
0.068964 1.450000 -0.009890
0.064230 1.500000 -0.005157
-0.927135 0.873765 -0.184434
-0.078607 0.025237 -0.184434
0.056271 1.450000 -0.049557
0.056271 1.450000 -0.049557
0.061004 1.500000 -0.044824
-0.939330 0.869181 0.181173
-0.090802 0.020653 0.181173
0.044510 1.450000 0.045861
0.044510 1.450000 0.045861
0.049243 1.500000 0.041128
-1.254254 0.859354 0.459041
-0.405726 0.010826 0.459041
0.003000 1.450000 0.050315
0.017200 1.500000 0.036115
-0.709819 0.846979 0.037889
0.138709 -0.001549 0.037889
0.001296 1.450000 0.037889
0.001296 1.450000 0.037889
-0.003438 1.500000 0.037889
-0.293364 0.835320 0.395583
0.555164 -0.013208 0.395583
0.001096 1.450000 -0.019968
0.001096 1.450000 -0.019968
-0.017837 1.500000 -0.034168
-0.733688 0.834567 -0.121146
0.114840 -0.013961 -0.121146
-0.023748 1.450000 0.017443
-0.028482 1.500000 0.022176
-0.297207 0.845133 0.353304
0.551321 -0.003395 0.353304
0.000969 1.450000 0.078128
-0.017965 1.500000 0.068662
-0.555576 0.850420 -0.090186
0.292952 0.001892 -0.090186
0.018777 1.450000 0.046902
0.009310 1.500000 0.051635
-0.466342 0.821245 0.418101
0.382186 -0.027283 0.418101
LINES 100 464
4 0 1 2 3
2 4 5
2 6 7
4 8 9 10 11
2 12 13
4 14 15 16 17
4 18 19 20 21
4 22 23 24 25
5 26 27 28 29 30
5 31 32 33 34 35
2 36 37
4 38 39 40 41
4 42 43 44 45
4 46 47 48 49
2 50 51
5 52 53 54 55 56
5 57 58 59 60 61
4 62 63 64 65
5 66 67 68 69 70
2 71 72
4 73 74 75 76
2 77 78
4 79 80 81 82
2 83 84
5 85 86 87 88 89
5 90 91 92 93 94
4 95 96 97 98
4 99 100 101 102
2 103 104
4 105 106 107 108
5 109 110 111 112 113
5 114 115 116 117 118
5 119 120 121 122 123
4 124 125 126 127
2 128 129
2 130 131
2 132 133
2 134 135
4 136 137 138 139
2 140 141
4 142 143 144 145
2 146 147
2 148 149
4 150 151 152 153
4 154 155 156 157
2 158 159
2 160 161
5 162 163 164 165 166
4 167 168 169 170
5 171 172 173 174 175
4 176 177 178 179
2 180 181
4 182 183 184 185
4 186 187 188 189
4 190 191 192 193
2 194 195
2 196 197
5 198 199 200 201 202
5 203 204 205 206 207
5 208 209 210 211 212
4 213 214 215 216
4 217 218 219 220
5 221 222 223 224 225
4 226 227 228 229
4 230 231 232 233
2 234 235
5 236 237 238 239 240
2 241 242
2 243 244
4 245 246 247 248
4 249 250 251 252
5 253 254 255 256 257
4 258 259 260 261
5 262 263 264 265 266
4 267 268 269 270
2 271 272
2 273 274
4 275 276 277 278
5 279 280 281 282 283
4 284 285 286 287
2 288 289
4 290 291 292 293
5 294 295 296 297 298
2 299 300
2 301 302
2 303 304
4 305 306 307 308
2 309 310
5 311 312 313 314 315
5 316 317 318 319 320
5 321 322 323 324 325
5 326 327 328 329 330
5 331 332 333 334 335
4 336 337 338 339
5 340 341 342 343 344
5 345 346 347 348 349
4 350 351 352 353
4 354 355 356 357
4 358 359 360 361
2 362 363
CELL_DATA 100
SCALARS Radiative_path_type float 1
LOOKUP_TABLE path_type
0.5
1.0
1.0
0.5
1.0
0.5
0.5
0.5
0.5
0.5
1.0
0.5
0.5
0.5
1.0
0.5
0.5
0.5
0.5
1.0
0.5
1.0
0.5
1.0
0.5
0.5
0.5
0.5
1.0
0.5
0.5
0.5
0.5
0.5
1.0
1.0
1.0
1.0
0.5
1.0
0.5
1.0
1.0
0.5
0.5
1.0
1.0
0.5
0.5
0.5
0.5
1.0
0.5
0.5
0.5
1.0
1.0
0.5
0.5
0.5
0.5
0.5
0.5
0.5
0.5
1.0
0.5
1.0
1.0
0.5
0.5
0.5
0.5
0.5
0.5
1.0
1.0
0.5
0.5
0.5
1.0
0.5
0.5
1.0
1.0
1.0
0.5
1.0
0.5
0.5
0.5
0.5
0.5
0.5
0.5
0.5
0.5
0.5
0.5
1.0
LOOKUP_TABLE path_type 5
1.0 0.0 0.0 1.0
0.0 1.0 0.0 1.0
0.0 0.0 1.0 1.0
0.0 1.0 1.0 1.0
1.0 1.0 0.0 1.0
