# vtk DataFile Version 2.0
Radiative paths
ASCII
DATASET POLYDATA
POINTS 300 float
0.082690 1.047040 0.469303
0.082690 0.003464 -0.017324
-0.011342 1.500000 -0.017324
-0.665227 1.041551 0.500575
-0.665227 -0.002025 0.013947
-0.004586 1.500000 0.013947
-0.544035 1.044208 0.535467
-0.544035 0.000632 0.048839
-0.198916 1.099153 0.048839
-0.237567 1.036834 0.496958
-0.237567 -0.006742 0.010331
-0.024273 1.124789 0.010331
0.503383 1.033646 0.553128
0.503383 -0.009930 0.066500
0.158265 1.088592 0.066500
-0.718440 1.044922 0.536737
-0.718440 0.001346 0.050109
-0.254850 1.055358 0.050109
-0.043236 1.052809 0.437451
-0.043236 0.009233 -0.049176
0.028972 1.158426 -0.049176
-0.116129 1.050738 0.457600
-0.116129 0.007162 -0.029028
-0.043921 1.156355 -0.029028
0.734665 1.058828 0.492254
0.734665 0.015252 0.005627
0.271075 1.069264 0.005627
0.747528 1.065610 0.475272
0.747528 0.022034 -0.011355
0.283939 1.076047 -0.011355
0.044506 1.055282 0.426500
0.044506 0.011706 -0.060128
-0.027702 1.160898 -0.060128
0.553025 1.049578 0.518201
0.553025 0.006002 0.031574
0.207906 1.104524 0.031574
-0.048894 1.039145 0.499864
-0.048894 -0.004431 0.013236
0.023313 1.144761 0.013236
-0.315830 1.053191 0.458150
-0.315830 0.009615 -0.028478
-0.102537 1.141146 -0.028478
-0.049351 1.030373 0.539457
-0.049351 -0.013203 0.052830
0.022857 1.135990 0.052830
-0.610503 1.023525 0.526139
-0.610503 -0.020051 0.039511
-0.146913 1.033962 0.039511
-0.463147 1.045296 0.473309
-0.463147 0.001720 -0.013319
0.007562 1.500000 -0.013319
0.417602 1.033398 0.493383
0.417602 -0.010178 0.006755
0.072483 1.088344 0.006755
-0.717322 1.043835 0.540358
-0.717322 0.000259 0.053730
-0.253733 1.054271 0.053730
-0.475816 1.048363 0.468795
-0.475816 0.004787 -0.017832
-0.006069 1.500000 -0.017832
0.099585 1.045320 0.479561
0.099585 0.001744 -0.007066
0.005445 1.500000 -0.007066
0.728064 1.067544 0.448396
0.728064 0.023968 -0.038232
0.264474 1.077980 -0.038232
-0.134608 1.053590 0.447493
-0.134608 0.010014 -0.039134
-0.062400 1.159206 -0.039134
0.137454 1.034828 0.532455
0.137454 -0.008748 0.045828
0.065246 1.140445 0.045828
0.130060 1.057492 0.429237
0.130060 0.013915 -0.057390
0.057853 1.163108 -0.057390
0.198996 1.039521 0.468043
0.198996 -0.004055 -0.018584
-0.014298 1.127476 -0.018584
-0.407385 1.037520 0.467991
-0.407385 -0.006056 -0.018637
-0.062266 1.092466 -0.018637
0.740282 1.048989 0.540016
0.740282 0.005413 0.053389
0.276692 1.059425 0.053389
0.067427 1.037155 0.511582
0.067427 -0.006421 0.024954
-0.004781 1.142771 0.024954
-0.648032 1.039168 0.494466
-0.648032 -0.004408 0.007839
0.013657 1.500000 0.007839
-0.615535 1.032238 0.493376
-0.615535 -0.011338 0.006749
-0.151945 1.042675 0.006749
-0.607369 1.020720 0.535247
-0.607369 -0.022856 0.048619
-0.143779 1.031156 0.048619
0.375766 1.047287 0.510812
0.375766 0.003710 0.024185
0.162472 1.135242 0.024185
0.335234 1.035924 0.543835
0.335234 -0.007652 0.057207
0.121940 1.123879 0.057207
0.436196 1.026717 0.535978
0.436196 -0.016859 0.049350
0.091077 1.081663 0.049350
-0.023384 1.033324 0.522310
-0.023384 -0.010252 0.035683
0.048824 1.138940 0.035683
-0.714270 1.048564 0.517064
-0.714270 0.004988 0.030437
-0.250680 1.059001 0.030437
0.737595 1.048070 0.541417
0.737595 0.004494 0.054789
0.274006 1.058506 0.054789
-0.508015 1.063173 0.426436
-0.508015 0.019597 -0.060191
-0.162896 1.118119 -0.060191
-0.510775 1.036222 0.547030
-0.510775 -0.007354 0.060402
-0.165656 1.091168 0.060402
0.259826 1.035342 0.513385
0.259826 -0.008234 0.026758
0.046532 1.123297 0.026758
0.263388 1.044251 0.475126
0.263388 0.000674 -0.011501
-0.019235 1.500000 -0.011501
-0.441050 1.038261 0.488606
-0.441050 -0.005315 0.001979
-0.095931 1.093207 0.001979
-0.511995 1.058826 0.448392
-0.511995 0.015250 -0.038235
-0.166876 1.113772 -0.038235
0.312434 1.048014 0.479801
0.312434 0.004438 -0.006827
0.099140 1.135969 -0.006827
-0.647405 1.033290 0.519203
-0.647405 -0.010286 0.032576
-0.183815 1.043726 0.032576
-0.580936 1.024175 0.495171
-0.580936 -0.019401 0.008544
-0.117347 1.034611 0.008544
0.458714 1.052461 0.438626
0.458714 0.008885 -0.048001
0.113595 1.107407 -0.048001
-0.701209 1.049812 0.499243
-0.701209 0.006236 0.012615
-0.237619 1.060248 0.012615
-0.348452 1.059408 0.444660
-0.348452 0.015832 -0.041967
-0.135158 1.147363 -0.041967
0.254472 1.052412 0.434738
0.254472 0.008836 -0.051889
0.041178 1.140367 -0.051889
-0.061367 1.046553 0.468332
-0.061367 0.002977 -0.018296
0.010840 1.152170 -0.018296
0.483798 1.054730 0.446430
0.483798 0.011154 -0.040198
0.138679 1.109675 -0.040198
0.138590 1.045065 0.486498
0.138590 0.001489 -0.000130
0.066383 1.150681 -0.000130
0.586523 1.024956 0.497129
0.586523 -0.018620 0.010502
0.122933 1.035392 0.010502
0.012074 1.032618 0.523810
0.012074 -0.010958 0.037182
-0.060133 1.138235 0.037182
-0.264224 1.037173 0.507129
-0.264224 -0.006403 0.020502
-0.050931 1.125128 0.020502
-0.390781 1.039901 0.445737
-0.390781 -0.003675 -0.040891
-0.045662 1.094847 -0.040891
0.056556 1.055240 0.428475
0.056556 0.011664 -0.058152
-0.015652 1.160857 -0.058152
0.538933 1.040190 0.549534
0.538933 -0.003386 0.062907
0.193814 1.095136 0.062907
-0.386214 1.034928 0.464386
-0.386214 -0.008648 -0.022241
-0.041095 1.089874 -0.022241
-0.722484 1.067279 0.444221
-0.722484 0.023703 -0.042406
-0.258894 1.077715 -0.042406
0.354730 1.057789 0.454650
0.354730 0.014213 -0.031977
0.141436 1.145744 -0.031977
-0.622870 1.024688 0.532909
-0.622870 -0.018888 0.046281
-0.159281 1.035125 0.046281
-0.468660 1.040785 0.497075
-0.468660 -0.002791 0.010447
0.003467 1.500000 0.010447
0.729236 1.045980 0.542461
0.729236 0.002404 0.055834
0.265646 1.056416 0.055834
0.103049 1.056378 0.430246
0.103049 0.012802 -0.056382
0.030842 1.161995 -0.056382
-0.356237 1.053576 0.474138
-0.356237 0.010000 -0.012489
-0.142944 1.141532 -0.012489
-0.494993 1.045510 0.494953
-0.494993 0.001934 0.008325
-0.149874 1.100456 0.008325
-0.615573 1.025909 0.520694
-0.615573 -0.017667 0.034066
-0.151983 1.036345 0.034066
-0.107097 1.056826 0.428831
-0.107097 0.013250 -0.057797
-0.034890 1.162442 -0.057797
0.395898 1.021017 0.532491
0.395898 -0.022559 0.045864
0.050779 1.075963 0.045864
-0.042165 1.047238 0.462396
-0.042165 0.003662 -0.024231
0.030042 1.152855 -0.024231
0.707217 1.046817 0.517877
0.707217 0.003241 0.031250
0.243627 1.057253 0.031250
0.677598 1.055544 0.452043
0.677598 0.011968 -0.034584
0.214008 1.065980 -0.034584
0.127593 1.039317 0.510764
0.127593 -0.004259 0.024137
0.055386 1.144934 0.024137
-0.450316 1.051842 0.435396
-0.450316 0.008266 -0.051232
-0.105197 1.106788 -0.051232
0.476739 1.045627 0.481491
0.476739 0.002051 -0.005136
0.006134 1.500000 -0.005136
0.599065 1.015188 0.551180
0.599065 -0.028388 0.064552
0.135475 1.025624 0.064552
-0.326705 1.034024 0.548588
-0.326705 -0.009552 0.061960
-0.113411 1.121979 0.061960
0.408545 1.040885 0.454000
0.408545 -0.002691 -0.032627
0.063426 1.095831 -0.032627
-0.224036 1.036579 0.492168
-0.224036 -0.006997 0.005541
-0.010742 1.124534 0.005541
0.014892 1.035224 0.512485
0.014892 -0.008352 0.025857
-0.057316 1.140841 0.025857
0.342010 1.058452 0.446112
0.342010 0.014875 -0.040516
0.128716 1.146407 -0.040516
-0.025972 1.049289 0.450751
-0.025972 0.005713 -0.035876
0.046236 1.154906 -0.035876
0.689154 1.053845 0.470375
0.689154 0.010269 -0.016253
0.225565 1.064281 -0.016253
0.369910 1.049759 0.497194
0.369910 0.006183 0.010566
0.156616 1.137714 0.010566
0.086121 1.034481 0.526406
0.086121 -0.009095 0.039778
0.013914 1.140097 0.039778
0.637408 1.048257 0.445166
0.637408 0.004681 -0.041461
0.173818 1.058693 -0.041461
0.232835 1.045783 0.454884
0.232835 0.002207 -0.031743
0.019542 1.133738 -0.031743
0.711358 1.066339 0.437672
0.711358 0.022763 -0.048955
0.247768 1.076775 -0.048955
-0.388756 1.033571 0.472163
-0.388756 -0.010005 -0.014465
-0.043637 1.088517 -0.014465
0.675314 1.052481 0.463071
0.675314 0.008905 -0.023556
0.211724 1.062917 -0.023556
0.145253 1.052199 0.455340
0.145253 0.008623 -0.031288
0.073045 1.157815 -0.031288
-0.448607 1.038947 0.490945
-0.448607 -0.004629 0.004318
-0.103488 1.093893 0.004318
0.310680 1.046625 0.485243
0.310680 0.003049 -0.001385
0.097387 1.134580 -0.001385
0.182668 1.042661 0.503869
0.182668 -0.000915 0.017242
0.110460 1.148278 0.017242
-0.648205 1.046296 0.463906
-0.648205 0.002720 -0.022722
-0.184616 1.056732 -0.022722
0.480326 1.048173 0.472828
0.480326 0.004597 -0.013799
0.010521 1.500000 -0.013799
-0.407849 1.034722 0.480637
-0.407849 -0.008854 -0.005990
-0.062730 1.089668 -0.005990
LINES 100 400
3 0 1 2
3 3 4 5
3 6 7 8
3 9 10 11
3 12 13 14
3 15 16 17
3 18 19 20
3 21 22 23
3 24 25 26
3 27 28 29
3 30 31 32
3 33 34 35
3 36 37 38
3 39 40 41
3 42 43 44
3 45 46 47
3 48 49 50
3 51 52 53
3 54 55 56
3 57 58 59
3 60 61 62
3 63 64 65
3 66 67 68
3 69 70 71
3 72 73 74
3 75 76 77
3 78 79 80
3 81 82 83
3 84 85 86
3 87 88 89
3 90 91 92
3 93 94 95
3 96 97 98
3 99 100 101
3 102 103 104
3 105 106 107
3 108 109 110
3 111 112 113
3 114 115 116
3 117 118 119
3 120 121 122
3 123 124 125
3 126 127 128
3 129 130 131
3 132 133 134
3 135 136 137
3 138 139 140
3 141 142 143
3 144 145 146
3 147 148 149
3 150 151 152
3 153 154 155
3 156 157 158
3 159 160 161
3 162 163 164
3 165 166 167
3 168 169 170
3 171 172 173
3 174 175 176
3 177 178 179
3 180 181 182
3 183 184 185
3 186 187 188
3 189 190 191
3 192 193 194
3 195 196 197
3 198 199 200
3 201 202 203
3 204 205 206
3 207 208 209
3 210 211 212
3 213 214 215
3 216 217 218
3 219 220 221
3 222 223 224
3 225 226 227
3 228 229 230
3 231 232 233
3 234 235 236
3 237 238 239
3 240 241 242
3 243 244 245
3 246 247 248
3 249 250 251
3 252 253 254
3 255 256 257
3 258 259 260
3 261 262 263
3 264 265 266
3 267 268 269
3 270 271 272
3 273 274 275
3 276 277 278
3 279 280 281
3 282 283 284
3 285 286 287
3 288 289 290
3 291 292 293
3 294 295 296
3 297 298 299
CELL_DATA 100
SCALARS Radiative_path_type float 1
LOOKUP_TABLE path_type
0.5
0.5
0.75
0.75
0.75
0.75
0.75
0.75
0.75
0.75
0.75
0.75
0.75
0.75
0.75
0.75
0.5
0.75
0.75
0.5
0.5
0.75
0.75
0.75
0.75
0.75
0.75
0.75
0.75
0.5
0.75
0.75
0.75
0.75
0.75
0.75
0.75
0.75
0.75
0.75
0.75
0.5
0.75
0.75
0.75
0.75
0.75
0.75
0.75
0.75
0.75
0.75
0.75
0.75
0.75
0.75
0.75
0.75
0.75
0.75
0.75
0.75
0.75
0.75
0.5
0.75
0.75
0.75
0.75
0.75
0.75
0.75
0.75
0.75
0.75
0.75
0.75
0.5
0.75
0.75
0.75
0.75
0.75
0.75
0.75
0.75
0.75
0.75
0.75
0.75
0.75
0.75
0.75
0.75
0.75
0.75
0.75
0.75
0.5
0.75
LOOKUP_TABLE path_type 5
1.0 0.0 0.0 1.0
0.0 1.0 0.0 1.0
0.0 0.0 1.0 1.0
0.0 1.0 1.0 1.0
1.0 1.0 0.0 1.0
