# vtk DataFile Version 2.0
Radiative paths
ASCII
DATASET POLYDATA
POINTS 296 float
0.418097 1.052983 0.823357
0.418097 -0.007671 0.328766
-0.019028 1.500000 0.038388
0.311771 1.058815 0.371296
0.311771 -0.001840 -0.123295
0.018512 1.500000 0.013973
0.546107 1.069701 0.169328
0.546107 0.009046 -0.325263
-0.027314 1.500000 -0.047847
0.715131 1.073758 0.439155
0.715131 0.013104 -0.055436
0.002511 1.500000 -0.060293
-0.420758 1.072675 0.576238
-0.420758 0.012020 0.081647
-0.007000 1.500000 -0.064076
0.719034 1.066113 0.612230
0.719034 0.005458 0.117639
0.002750 1.500000 -0.028726
0.608302 1.058468 0.095472
0.608302 -0.002187 -0.399120
0.030561 1.500000 0.022594
-0.720167 1.051574 0.557942
-0.720167 -0.009080 0.063351
-0.014823 1.500000 0.058421
-0.546250 1.055639 0.655849
-0.546250 -0.005015 0.161258
0.014719 1.500000 0.013867
-0.529666 1.045816 0.692984
-0.529666 -0.014838 0.198393
0.034965 1.500000 0.050040
0.367752 1.039295 0.250820
0.367752 -0.021359 -0.243772
0.363084 -0.005262 -0.240776
0.260246 -1.062860 -0.731204
0.718927 1.058290 0.950042
0.718927 -0.002365 0.455451
-0.001106 1.500000 0.023872
0.445554 1.048007 0.111643
0.445554 -0.012648 -0.382948
0.006987 1.500000 0.041703
0.168899 1.065539 0.481644
0.168899 0.004884 -0.012948
0.018491 1.500000 -0.017832
0.605083 1.067077 0.776316
0.605083 0.006422 0.281724
0.030653 1.500000 -0.005939
0.397379 1.046343 0.097146
0.397379 -0.014312 -0.397446
-0.041671 1.500000 0.027672
0.785635 1.073906 0.655884
0.785635 0.013252 0.161293
0.073086 1.500000 0.015690
-0.139067 1.067074 0.196335
-0.139067 0.006420 -0.298257
-0.006537 1.500000 -0.020351
0.562606 1.033800 0.138011
0.562606 -0.026854 -0.356580
-0.660020 1.040922 0.100916
-0.660020 -0.019732 -0.393675
0.050303 1.500000 0.032965
-0.393372 1.060183 0.891742
-0.393372 -0.000472 0.397151
0.023860 1.500000 -0.033884
-0.364822 1.048462 0.982414
-0.364822 -0.012192 0.487822
0.055668 1.500000 0.053420
0.652033 1.041251 0.660104
0.652033 -0.019404 0.165513
0.638367 0.009112 0.162720
0.545897 -1.052154 -0.321813
-0.181534 1.067363 0.747461
-0.181534 0.006709 0.252870
-0.049029 1.500000 -0.034738
0.014527 1.062996 0.627899
0.014527 0.002342 0.133308
0.005641 1.500000 -0.013363
-0.314067 1.071381 0.331663
-0.314067 0.010726 -0.162928
-0.040934 1.500000 -0.026809
0.062822 1.073677 0.441058
0.062822 0.013022 -0.053533
0.053999 1.500000 -0.058390
0.566390 1.039443 0.274462
0.566390 -0.021211 -0.220129
0.760212 1.070498 0.215378
0.760212 0.009843 -0.279213
0.046029 1.500000 -0.001945
-0.573471 1.052719 0.396081
-0.573471 -0.007936 -0.098510
-0.011413 1.500000 0.039315
-0.472039 1.075671 0.193185
-0.472039 0.015017 -0.301407
-0.059115 1.500000 -0.025101
-0.318577 1.067676 0.206460
-0.318577 0.007022 -0.288131
-0.044765 1.500000 -0.010338
-0.384395 1.054881 0.792181
-0.384395 -0.005774 0.297589
0.034311 1.500000 0.007577
0.563824 1.058278 0.782342
0.563824 -0.002377 0.287750
-0.013991 1.500000 -0.001607
-0.414165 1.070815 0.182744
-0.414165 0.010160 -0.311847
0.000110 1.500000 -0.034637
-0.503206 1.053409 0.623038
-0.503206 -0.007245 0.128446
0.058595 1.500000 -0.019163
-0.067116 1.054051 0.970926
-0.067116 -0.006604 0.476334
0.066570 1.500000 0.043537
-0.331642 1.061040 0.822818
-0.331642 0.000385 0.328226
-0.056613 1.500000 0.039401
0.335890 1.058548 0.235495
0.335890 -0.002106 -0.259096
0.042578 1.500000 0.020396
0.392649 1.055274 0.071306
0.392649 -0.005381 -0.423286
-0.043811 1.500000 -0.000675
0.197662 1.062930 0.500336
0.197662 0.002275 0.005745
0.046990 1.500000 0.000853
-0.176928 1.054115 0.852352
-0.176928 -0.006539 0.357761
0.689005 1.044748 0.242392
0.689005 -0.015906 -0.252199
-0.037518 1.500000 0.029861
0.101436 1.050757 0.842273
0.101436 -0.009897 0.347682
-0.050460 1.500000 0.056875
0.105103 1.073269 0.301961
0.105103 0.012614 -0.192630
-0.044528 1.500000 -0.056683
-0.135090 1.065860 0.199549
-0.135090 0.005205 -0.295042
-0.002452 1.500000 -0.016911
-0.559824 1.058150 0.223619
-0.559824 -0.002505 -0.270972
0.000210 1.500000 0.008594
0.413417 1.033281 0.138528
0.413417 -0.027373 -0.356063
0.378463 1.056742 0.874538
0.378463 -0.003912 0.379947
-0.057572 1.500000 -0.052077
0.743297 1.047948 0.271971
0.743297 -0.012707 -0.222620
0.018307 1.500000 0.058844
0.399704 1.056262 0.916553
0.399704 -0.004392 0.421961
-0.036469 1.500000 -0.010201
0.297345 1.057389 0.812813
0.297345 -0.003265 0.318222
0.003808 1.500000 0.028693
-0.364308 1.048699 0.229266
-0.364308 -0.011955 -0.265325
0.056116 1.500000 0.015999
-0.708217 1.074859 0.445333
-0.708217 0.014204 -0.049258
-0.013756 1.500000 -0.054112
-0.352674 1.054876 0.886793
-0.352674 -0.005778 0.392202
0.066033 1.500000 -0.040358
0.292545 1.064146 0.882338
0.292545 0.003491 0.387747
0.000327 1.500000 -0.042150
-0.750244 1.064964 0.383112
-0.750244 0.004309 -0.111479
-0.051158 1.500000 0.025227
-0.007765 1.060689 0.924402
-0.007765 0.000035 0.429811
-0.016665 1.500000 -0.001079
-0.016766 1.047071 0.257629
-0.016766 -0.013584 -0.236963
-0.025747 1.500000 0.044665
0.707674 1.065431 0.730395
0.707674 0.004777 0.235804
-0.008937 1.500000 -0.052176
0.388425 1.031620 0.133149
0.388425 -0.029034 -0.361443
0.331207 1.067759 0.485017
0.331207 0.007105 -0.009575
0.039695 1.500000 -0.014452
0.316429 1.062255 0.934603
0.316429 0.001600 0.440012
0.023841 1.500000 0.009571
-0.138730 1.060044 0.936446
-0.138730 -0.000610 0.441855
-0.005576 1.500000 0.010779
-0.543354 1.048876 0.389370
-0.543354 -0.011779 -0.105221
0.020137 1.500000 0.032956
0.271780 1.044973 0.560423
0.271780 -0.015681 0.065831
-0.024182 1.500000 0.060880
0.632079 1.068821 0.802183
0.632079 0.008166 0.307592
0.058320 1.500000 0.020265
-0.706863 1.074156 0.178315
-0.706863 0.013501 -0.316277
-0.012074 1.500000 -0.039689
0.439908 1.057220 0.974246
0.439908 -0.003435 0.479655
0.004012 1.500000 0.047768
0.580384 1.062803 0.633353
0.580384 0.002148 0.138762
0.004310 1.500000 -0.007928
0.028419 1.050168 0.248400
0.028419 -0.010487 -0.246191
0.019457 1.500000 0.034860
-0.055691 1.064942 0.868339
-0.055691 0.004287 0.373748
-0.064565 1.500000 -0.055921
0.155781 1.050089 0.249216
0.155781 -0.010565 -0.245375
0.003819 1.500000 0.035691
-0.600022 1.051265 0.268080
-0.600022 -0.009390 -0.226511
-0.037423 1.500000 0.054336
-0.748577 1.084981 0.310030
-0.748577 0.024326 -0.184562
-0.058847 1.500000 -0.049685
0.381725 1.052401 0.930905
0.381725 -0.008254 0.436314
-0.055568 1.500000 0.003043
-0.239125 1.045347 0.105623
-0.239125 -0.015308 -0.388968
0.038782 1.500000 0.036429
-0.214648 1.062514 0.329436
-0.214648 0.001860 -0.165156
0.060111 1.500000 -0.028225
-0.654940 1.051726 0.350908
-0.654940 -0.008929 -0.143683
0.050333 1.500000 -0.005767
0.488659 1.071027 0.066807
0.488659 0.010372 -0.427784
0.056766 1.500000 -0.009596
-0.413956 1.071634 0.576626
-0.413956 0.010979 0.082035
0.000091 1.500000 -0.063790
0.166027 1.051477 0.699574
0.166027 -0.009178 0.204983
0.014203 1.500000 0.057184
-0.761871 1.088753 0.439469
-0.761871 0.028099 -0.055122
-0.073905 1.500000 -0.059931
0.098029 1.046166 0.105182
0.098029 -0.014489 -0.389410
-0.054329 1.500000 0.035758
-0.198254 1.048715 0.113699
-0.198254 -0.011940 -0.380892
-0.064094 1.500000 0.043560
-0.267791 1.060935 0.070890
-0.267791 0.000281 -0.423701
0.007258 1.500000 -0.002680
-0.023592 1.043574 0.420370
-0.023592 -0.017080 -0.074221
0.778591 1.070060 0.667565
0.778591 0.009405 0.172973
0.064199 1.500000 0.026994
-0.709730 1.070670 0.725995
-0.709730 0.010016 0.231404
-0.013311 1.500000 -0.055567
-0.695714 1.050119 0.390725
-0.695714 -0.010536 -0.103866
0.010310 1.500000 0.034197
-0.656472 1.047820 0.801324
-0.656472 -0.012835 0.306732
0.050627 1.500000 0.015360
0.669437 1.051009 0.768579
0.669437 -0.009646 0.273988
-0.054086 1.500000 -0.016770
0.394156 1.046721 0.239940
0.394156 -0.013934 -0.254652
-0.044784 1.500000 0.027041
-0.227181 1.066019 0.184703
-0.227181 0.005364 -0.309889
0.046935 1.500000 -0.031787
0.729067 1.057020 0.987882
0.729067 -0.003635 0.493290
0.008425 1.500000 0.061346
0.555996 1.041155 0.413302
0.555996 -0.019500 -0.081289
-0.028403 1.500000 0.057593
0.703214 1.078008 0.151137
0.703214 0.017354 -0.343455
-0.007369 1.500000 -0.067584
0.198356 1.050727 0.555824
0.198356 -0.009927 0.061233
0.046457 1.500000 0.056301
-0.614691 1.073171 0.067716
-0.614691 0.012517 -0.426875
-0.060256 1.500000 -0.009289
-0.642800 1.051518 0.617366
-0.642800 -0.009137 0.122775
0.062570 1.500000 -0.025020
LINES 100 396
3 0 1 2
3 3 4 5
3 6 7 8
3 9 10 11
3 12 13 14
3 15 16 17
3 18 19 20
3 21 22 23
3 24 25 26
3 27 28 29
4 30 31 32 33
3 34 35 36
3 37 38 39
3 40 41 42
3 43 44 45
3 46 47 48
3 49 50 51
3 52 53 54
2 55 56
3 57 58 59
3 60 61 62
3 63 64 65
4 66 67 68 69
3 70 71 72
3 73 74 75
3 76 77 78
3 79 80 81
2 82 83
3 84 85 86
3 87 88 89
3 90 91 92
3 93 94 95
3 96 97 98
3 99 100 101
3 102 103 104
3 105 106 107
3 108 109 110
3 111 112 113
3 114 115 116
3 117 118 119
3 120 121 122
2 123 124
3 125 126 127
3 128 129 130
3 131 132 133
3 134 135 136
3 137 138 139
2 140 141
3 142 143 144
3 145 146 147
3 148 149 150
3 151 152 153
3 154 155 156
3 157 158 159
3 160 161 162
3 163 164 165
3 166 167 168
3 169 170 171
3 172 173 174
3 175 176 177
2 178 179
3 180 181 182
3 183 184 185
3 186 187 188
3 189 190 191
3 192 193 194
3 195 196 197
3 198 199 200
3 201 202 203
3 204 205 206
3 207 208 209
3 210 211 212
3 213 214 215
3 216 217 218
3 219 220 221
3 222 223 224
3 225 226 227
3 228 229 230
3 231 232 233
3 234 235 236
3 237 238 239
3 240 241 242
3 243 244 245
3 246 247 248
3 249 250 251
3 252 253 254
2 255 256
3 257 258 259
3 260 261 262
3 263 264 265
3 266 267 268
3 269 270 271
3 272 273 274
3 275 276 277
3 278 279 280
3 281 282 283
3 284 285 286
3 287 288 289
3 290 291 292
3 293 294 295
CELL_DATA 100
SCALARS Radiative_path_type float 1
LOOKUP_TABLE path_type
0.5
0.5
0.5
0.5
0.5
0.5
0.5
0.5
0.5
0.5
0.75
0.5
0.5
0.5
0.5
0.5
0.5
0.5
1.0
0.5
0.5
0.5
0.75
0.5
0.5
0.5
0.5
1.0
0.5
0.5
0.5
0.5
0.5
0.5
0.5
0.5
0.5
0.5
0.5
0.5
0.5
1.0
0.5
0.5
0.5
0.5
0.5
1.0
0.5
0.5
0.5
0.5
0.5
0.5
0.5
0.5
0.5
0.5
0.5
0.5
1.0
0.5
0.5
0.5
0.5
0.5
0.5
0.5
0.5
0.5
0.5
0.5
0.5
0.5
0.5
0.5
0.5
0.5
0.5
0.5
0.5
0.5
0.5
0.5
0.5
0.5
1.0
0.5
0.5
0.5
0.5
0.5
0.5
0.5
0.5
0.5
0.5
0.5
0.5
0.5
LOOKUP_TABLE path_type 5
1.0 0.0 0.0 1.0
0.0 1.0 0.0 1.0
0.0 0.0 1.0 1.0
0.0 1.0 1.0 1.0
1.0 1.0 0.0 1.0
