# vtk DataFile Version 2.0
Radiative paths
ASCII
DATASET POLYDATA
POINTS 292 float
0.082816 1.139066 -0.017745
0.082816 -0.000359 -0.017745
-0.716496 1.151353 0.037341
-0.716496 0.011928 0.037341
-0.061993 1.500000 0.037341
0.569059 1.120362 -0.035642
0.569059 -0.019063 -0.035642
0.555022 0.012850 -0.035642
0.429978 -1.119693 -0.035642
-0.103060 1.139702 -0.007261
-0.103060 0.000277 -0.007261
-0.008827 1.500000 -0.007261
0.501046 1.143995 0.068152
0.501046 0.004570 0.068152
0.031232 1.500000 0.068152
0.672773 1.142162 0.068240
0.672773 0.002737 0.068240
0.014226 1.500000 0.068240
0.693142 1.146444 0.045608
0.693142 0.007019 0.045608
0.036479 1.500000 0.045608
0.748280 1.158034 -0.011643
0.748280 0.018609 -0.011643
0.096715 1.500000 -0.011643
-0.183056 1.142212 -0.013679
-0.183056 0.002787 -0.013679
-0.088981 1.500000 -0.013679
0.692846 1.146382 0.059380
0.692846 0.006957 0.059380
0.036156 1.500000 0.059380
-0.048963 1.138004 0.054114
-0.048963 -0.001421 0.054114
-0.608457 1.128643 0.040512
-0.608457 -0.010782 0.040512
0.056035 1.500000 0.040512
0.302406 1.141261 -0.035477
0.302406 0.001836 -0.035477
0.020002 1.500000 -0.035477
-0.261157 1.137408 -0.059448
-0.261157 -0.002017 -0.059448
0.021974 1.500000 -0.059448
0.741903 1.156693 -0.001566
0.741903 0.017268 -0.001566
0.089748 1.500000 -0.001566
-0.597059 1.126247 0.009000
-0.597059 -0.013178 0.009000
0.068487 1.500000 0.009000
0.628281 1.132810 -0.059283
0.628281 -0.006615 -0.059283
-0.034378 1.500000 -0.059283
0.137121 1.140771 0.046941
0.137121 0.001346 0.046941
0.042956 1.500000 0.046941
0.725379 1.153220 0.023879
0.725379 0.013795 0.023879
0.071696 1.500000 0.023879
0.295910 1.140655 -0.012172
0.295910 0.001230 -0.012172
0.013392 1.500000 -0.012172
0.067244 1.138577 0.025561
0.067244 -0.000848 0.025561
-0.647622 1.136876 0.008037
-0.647622 -0.002549 0.008037
0.013250 1.500000 0.008037
-0.615105 1.130041 0.006920
-0.615105 -0.009384 0.006920
0.048772 1.500000 0.006920
-0.009807 1.136775 0.042970
-0.009807 -0.002650 0.042970
0.574634 1.121534 0.032461
0.574634 -0.017891 0.032461
0.560728 0.013725 0.032461
0.435684 -1.118818 0.032461
-0.409064 1.129887 -0.052704
-0.409064 -0.009538 -0.052704
0.065182 1.500000 -0.052704
-0.205790 1.132235 0.032631
-0.205790 -0.007190 0.032631
0.078316 1.500000 0.032631
0.735085 1.155260 0.056177
0.735085 0.015835 0.056177
0.082300 1.500000 0.056177
-0.423002 1.132024 -0.025236
-0.423002 -0.007401 -0.025236
0.050574 1.500000 -0.025236
0.589178 1.124591 -0.018860
0.589178 -0.014834 -0.018860
-0.077096 1.500000 -0.018860
0.552519 1.151891 -0.026420
0.552519 0.012466 -0.026420
0.085186 1.500000 -0.026420
-0.513409 1.145892 -0.039185
-0.513409 0.006467 -0.039185
-0.044190 1.500000 -0.039185
-0.179079 1.142087 0.025653
-0.179079 0.002662 0.025653
-0.084996 1.500000 0.025653
0.178809 1.142079 -0.068544
0.178809 0.002654 -0.068544
0.084726 1.500000 -0.068544
-0.700683 1.148029 0.012935
-0.700683 0.008604 0.012935
-0.044717 1.500000 0.012935
0.646309 1.136600 -0.038359
0.646309 -0.002825 -0.038359
-0.014684 1.500000 -0.038359
-0.426487 1.132559 0.066979
-0.426487 -0.006866 0.066979
0.046920 1.500000 0.066979
0.138594 1.140817 -0.000133
0.138594 0.001392 -0.000133
0.044431 1.500000 -0.000133
0.718762 1.151829 -0.051453
0.718762 0.012404 -0.051453
0.064468 1.500000 -0.051453
-0.382983 1.125886 -0.032163
-0.382983 -0.013539 -0.032163
0.092520 1.500000 -0.032163
0.056979 1.138255 -0.059566
0.056979 -0.001170 -0.059566
0.536767 1.149474 0.064470
0.536767 0.010049 0.064470
0.068674 1.500000 0.064470
0.279900 1.139159 -0.069623
0.279900 -0.000266 -0.069623
-0.002900 1.500000 -0.069623
-0.488688 1.142100 -0.049055
-0.488688 0.002675 -0.049055
-0.018278 1.500000 -0.049055
-0.468283 1.138970 0.010707
-0.468283 -0.000455 0.010707
0.003110 1.500000 0.010707
0.726655 1.153488 0.057248
0.726655 0.014063 0.057248
0.073091 1.500000 0.057248
0.349641 1.145674 0.021700
0.349641 0.006249 0.021700
0.068069 1.500000 0.021700
0.348710 1.145587 0.009260
0.348710 0.006162 0.009260
0.067121 1.500000 0.009260
-0.107520 1.139841 -0.059201
-0.107520 0.000416 -0.059201
-0.013296 1.500000 -0.059201
0.693286 1.146474 0.002257
0.693286 0.007049 0.002257
0.036637 1.500000 0.002257
-0.551013 1.151660 -0.060213
-0.551013 0.012235 -0.060213
-0.083607 1.500000 -0.060213
0.127419 1.140466 0.024724
0.127419 0.001041 0.024724
0.033234 1.500000 0.024724
-0.455125 1.136952 -0.033020
-0.455125 -0.002473 -0.033020
0.016902 1.500000 -0.033020
0.292945 1.140378 -0.067594
0.292945 0.000953 -0.067594
0.010375 1.500000 -0.067594
-0.153585 1.141287 0.007221
-0.153585 0.001862 0.007221
-0.059452 1.500000 0.007221
-0.223889 1.133926 0.005677
-0.223889 -0.005499 0.005677
0.059897 1.500000 0.005677
0.271305 1.138356 -0.061588
0.271305 -0.001069 -0.061588
-0.011647 1.500000 -0.061588
0.472534 1.139622 0.051078
0.472534 0.000197 0.051078
0.001346 1.500000 0.051078
0.369718 1.147550 0.010825
0.369718 0.008125 0.010825
0.088500 1.500000 0.010825
0.282521 1.139404 -0.038282
0.282521 -0.000021 -0.038282
-0.000233 1.500000 -0.038282
-0.724894 1.153118 0.017565
-0.724894 0.013693 0.017565
-0.071167 1.500000 0.017565
-0.389174 1.126836 -0.014824
-0.389174 -0.012589 -0.014824
0.086031 1.500000 -0.014824
0.645699 1.136471 0.055570
0.645699 -0.002954 0.055570
-0.015350 1.500000 0.055570
-0.441681 1.134890 -0.005597
-0.441681 -0.004535 -0.005597
0.030994 1.500000 -0.005597
0.182547 1.142196 0.017661
0.182547 0.002771 0.017661
0.088471 1.500000 0.017661
-0.409557 1.129962 0.062402
-0.409557 -0.009463 0.062402
0.064666 1.500000 0.062402
0.126460 1.140436 0.018854
0.126460 0.001011 0.018854
0.032273 1.500000 0.018854
0.220502 1.133609 0.039646
0.220502 -0.005816 0.039646
-0.063345 1.500000 0.039646
0.661735 1.139842 0.004457
0.661735 0.000417 0.004457
0.002169 1.500000 0.004457
0.062500 1.138429 0.057905
0.062500 -0.000996 0.057905
-0.548336 1.151249 -0.052550
-0.548336 0.011824 -0.052550
-0.080800 1.500000 -0.052550
-0.121967 1.140295 0.005670
-0.121967 0.000870 0.005670
-0.027772 1.500000 0.005670
0.164695 1.141636 -0.017268
0.164695 0.002211 -0.017268
0.070584 1.500000 -0.017268
0.713226 1.150666 0.029531
0.713226 0.011241 0.029531
0.058420 1.500000 0.029531
-0.113078 1.140016 -0.007413
-0.113078 0.000591 -0.007413
-0.018865 1.500000 -0.007413
0.180985 1.142147 0.042539
0.180985 0.002722 0.042539
0.086906 1.500000 0.042539
-0.620965 1.131272 0.023850
-0.620965 -0.008153 0.023850
0.042371 1.500000 0.023850
-0.012536 1.136860 0.034952
-0.012536 -0.002565 0.034952
-0.584718 1.123653 -0.030119
-0.584718 -0.015772 -0.030119
0.081969 1.500000 -0.030119
0.336626 1.144459 -0.012001
0.336626 0.005034 -0.012001
0.054825 1.500000 -0.012001
0.738411 1.155960 -0.058777
0.738411 0.016535 -0.058777
0.085934 1.500000 -0.058777
-0.079264 1.138955 0.036537
-0.079264 -0.000470 0.036537
0.491869 1.142588 -0.055228
0.491869 0.003163 -0.055228
0.021613 1.500000 -0.055228
-0.637899 1.134832 0.068176
-0.637899 -0.004593 0.068176
0.023872 1.500000 0.068176
0.687300 1.145216 -0.047713
0.687300 0.005791 -0.047713
0.030097 1.500000 -0.047713
-0.736665 1.155593 -0.030190
-0.736665 0.016168 -0.030190
-0.084026 1.500000 -0.030190
-0.462187 1.138035 -0.060000
-0.462187 -0.001390 -0.060000
0.009499 1.500000 -0.060000
-0.345017 1.145242 -0.066636
-0.345017 0.005817 -0.066636
-0.063364 1.500000 -0.066636
0.514880 1.146117 0.045560
0.514880 0.006692 0.045560
0.045732 1.500000 0.045560
-0.663226 1.140156 0.010145
-0.663226 0.000731 0.010145
-0.003797 1.500000 0.010145
0.022936 1.137187 -0.024466
0.022936 -0.002238 -0.024466
0.435366 1.133921 -0.024363
0.435366 -0.005504 -0.024363
-0.037613 1.500000 -0.024363
0.350500 1.145755 0.055179
0.350500 0.006330 0.055179
0.068943 1.500000 0.055179
0.250990 1.136458 -0.038930
0.250990 -0.002967 -0.038930
-0.032319 1.500000 -0.038930
-0.298412 1.140888 0.003915
-0.298412 0.001463 0.003915
-0.015938 1.500000 0.003915
0.387426 1.126567 -0.022517
0.387426 -0.012858 -0.022517
-0.087863 1.500000 -0.022517
0.010144 1.136785 0.005561
0.010144 -0.002640 0.005561
0.495950 1.143214 -0.058168
0.495950 0.003789 -0.058168
0.025890 1.500000 -0.058168
-0.601617 1.127205 0.041551
-0.601617 -0.012220 0.041551
0.063508 1.500000 0.041551
0.391996 1.127268 -0.022799
0.391996 -0.012157 -0.022799
-0.083073 1.500000 -0.022799
LINES 100 392
2 0 1
3 2 3 4
4 5 6 7 8
3 9 10 11
3 12 13 14
3 15 16 17
3 18 19 20
3 21 22 23
3 24 25 26
3 27 28 29
2 30 31
3 32 33 34
3 35 36 37
3 38 39 40
3 41 42 43
3 44 45 46
3 47 48 49
3 50 51 52
3 53 54 55
3 56 57 58
2 59 60
3 61 62 63
3 64 65 66
2 67 68
4 69 70 71 72
3 73 74 75
3 76 77 78
3 79 80 81
3 82 83 84
3 85 86 87
3 88 89 90
3 91 92 93
3 94 95 96
3 97 98 99
3 100 101 102
3 103 104 105
3 106 107 108
3 109 110 111
3 112 113 114
3 115 116 117
2 118 119
3 120 121 122
3 123 124 125
3 126 127 128
3 129 130 131
3 132 133 134
3 135 136 137
3 138 139 140
3 141 142 143
3 144 145 146
3 147 148 149
3 150 151 152
3 153 154 155
3 156 157 158
3 159 160 161
3 162 163 164
3 165 166 167
3 168 169 170
3 171 172 173
3 174 175 176
3 177 178 179
3 180 181 182
3 183 184 185
3 186 187 188
3 189 190 191
3 192 193 194
3 195 196 197
3 198 199 200
3 201 202 203
2 204 205
3 206 207 208
3 209 210 211
3 212 213 214
3 215 216 217
3 218 219 220
3 221 222 223
3 224 225 226
2 227 228
3 229 230 231
3 232 233 234
3 235 236 237
2 238 239
3 240 241 242
3 243 244 245
3 246 247 248
3 249 250 251
3 252 253 254
3 255 256 257
3 258 259 260
3 261 262 263
2 264 265
3 266 267 268
3 269 270 271
3 272 273 274
3 275 276 277
3 278 279 280
2 281 282
3 283 284 285
3 286 287 288
3 289 290 291
CELL_DATA 100
SCALARS Radiative_path_type float 1
LOOKUP_TABLE path_type
1.0
0.5
0.75
0.5
0.5
0.5
0.5
0.5
0.5
0.5
1.0
0.5
0.5
0.5
0.5
0.5
0.5
0.5
0.5
0.5
1.0
0.5
0.5
1.0
0.75
0.5
0.5
0.5
0.5
0.5
0.5
0.5
0.5
0.5
0.5
0.5
0.5
0.5
0.5
0.5
1.0
0.5
0.5
0.5
0.5
0.5
0.5
0.5
0.5
0.5
0.5
0.5
0.5
0.5
0.5
0.5
0.5
0.5
0.5
0.5
0.5
0.5
0.5
0.5
0.5
0.5
0.5
0.5
0.5
1.0
0.5
0.5
0.5
0.5
0.5
0.5
0.5
1.0
0.5
0.5
0.5
1.0
0.5
0.5
0.5
0.5
0.5
0.5
0.5
0.5
1.0
0.5
0.5
0.5
0.5
0.5
1.0
0.5
0.5
0.5
LOOKUP_TABLE path_type 5
1.0 0.0 0.0 1.0
0.0 1.0 0.0 1.0
0.0 0.0 1.0 1.0
0.0 1.0 1.0 1.0
1.0 1.0 0.0 1.0
