# vtk DataFile Version 2.0
Radiative paths
ASCII
DATASET POLYDATA
POINTS 301 float
0.416811 1.171631 0.328923
0.416811 0.001197 0.328923
-0.017742 1.500000 0.040254
0.311465 1.171581 -0.122814
0.311465 0.001147 -0.122814
0.018789 1.500000 0.014182
0.548094 1.169430 -0.327373
0.548094 -0.001004 -0.327373
-0.029192 1.500000 -0.048087
0.718317 1.170206 -0.056954
0.718317 -0.000228 -0.056954
-0.000693 1.500000 -0.061855
-0.422798 1.168038 0.080736
-0.422798 -0.002397 0.080736
-0.005031 1.500000 -0.066399
0.720560 1.169435 0.117197
0.720560 -0.001000 0.117197
0.001180 1.500000 -0.029801
0.607379 1.172904 -0.397885
0.607379 0.002470 -0.397885
0.031429 1.500000 0.022522
-0.717189 1.174102 0.064818
-0.717189 0.003667 0.064818
-0.017803 1.500000 0.059930
-0.545636 1.168701 0.161465
-0.545636 -0.001734 0.161465
0.014110 1.500000 0.014396
-0.527492 1.167217 0.199136
-0.527492 -0.003218 0.199136
0.032807 1.500000 0.051921
0.366490 1.157455 -0.242157
0.366490 -0.012980 -0.242157
0.361866 0.002967 -0.239190
0.259001 -1.162937 -0.240995
0.717701 1.173441 0.455351
0.717701 0.003006 0.455351
0.000242 1.500000 0.025315
0.444268 1.166298 -0.380799
0.444268 -0.004137 -0.380799
0.008168 1.500000 0.041462
0.169110 1.171319 -0.013375
0.169110 0.000884 -0.013375
0.018299 1.500000 -0.018272
0.605430 1.175024 0.281692
0.605430 0.004589 0.281692
0.030295 1.500000 -0.006325
0.396537 1.161708 -0.396113
0.396537 -0.008727 -0.396113
-0.040893 1.500000 0.027437
0.785059 1.186116 0.161510
0.785059 0.015681 0.161510
0.073674 1.500000 0.016146
-0.139270 1.172550 -0.299131
-0.139270 0.002115 -0.299131
-0.006357 1.500000 -0.020425
0.559714 1.158221 -0.352955
0.559714 -0.012213 -0.352955
-0.021883 1.500000 0.071574
0.571233 1.169354 -0.013149
0.571233 -0.001081 -0.013149
-0.006083 1.500000 -0.018053
0.478718 1.176560 -0.056587
0.478718 0.006126 -0.056587
0.045594 1.500000 -0.061467
0.193844 1.178218 -0.340469
0.193844 0.007783 -0.340469
0.043727 1.500000 -0.062817
0.786004 1.183411 -0.254413
0.786004 0.012976 -0.254413
0.073323 1.500000 0.022273
0.240434 1.165422 0.043306
0.240434 -0.005012 0.043306
-0.053444 1.500000 0.038390
-0.074011 1.168883 0.168605
-0.074011 -0.001552 0.168605
0.059226 1.500000 0.021553
-0.667846 1.160461 -0.400475
-0.667846 -0.009974 -0.400475
0.037916 1.500000 0.023425
0.230086 1.164318 -0.020336
0.230086 -0.006116 -0.020336
-0.064008 1.500000 -0.025256
0.102474 1.165430 0.412223
0.102474 -0.005005 0.412223
-0.048930 1.500000 -0.020115
0.124495 1.169462 0.154072
0.124495 -0.000972 0.154072
-0.026502 1.500000 0.007077
0.131776 1.169411 -0.034285
0.131776 -0.001023 -0.034285
-0.019227 1.500000 -0.039188
-0.149745 1.179515 -0.481900
-0.149745 0.009080 -0.481900
-0.017451 1.500000 -0.063349
-0.232085 1.163215 0.078436
-0.232085 -0.007220 0.078436
0.044339 1.500000 -0.069171
-0.718647 1.175987 0.443725
-0.718647 0.005552 0.443725
-0.020142 1.500000 0.014420
-0.029468 1.173373 0.452562
-0.029468 0.002938 0.452562
-0.038350 1.500000 0.022507
0.219752 1.170838 -0.070190
0.219752 0.000404 -0.070190
0.068893 1.500000 0.066873
0.434743 1.170599 0.290893
0.434743 0.000164 0.290893
-0.000109 1.500000 0.002025
0.405346 1.173200 -0.472098
0.405346 0.002766 -0.472098
-0.028752 1.500000 -0.051775
0.260890 1.167307 -0.014750
0.260890 -0.003128 -0.014750
-0.032621 1.500000 -0.019660
0.136729 1.177844 -0.480113
0.136729 0.007409 -0.480113
-0.013426 1.500000 -0.061093
-0.560769 1.170761 0.020684
-0.560769 0.000326 0.020684
-0.001791 1.500000 0.015785
0.657565 1.155469 -0.112779
0.657565 -0.014966 -0.112779
0.644916 0.011427 -0.110367
0.551936 -1.155307 -0.111935
0.528665 1.161503 0.019987
0.528665 -0.008932 0.019987
-0.051670 1.500000 0.015058
-0.122076 1.177499 0.484579
-0.122076 0.007065 0.484579
0.010397 1.500000 0.055709
-0.707406 1.164360 -0.364316
-0.707406 -0.006075 -0.364316
-0.003466 1.500000 0.058489
-0.235425 1.166068 0.280544
-0.235425 -0.004367 0.280544
0.040476 1.500000 -0.009197
-0.286156 1.172304 0.298119
-0.286156 0.001869 0.298119
-0.011399 1.500000 0.009579
0.588368 1.164534 0.372223
0.588368 -0.005900 0.372223
0.009199 1.500000 -0.060372
0.492074 1.178713 0.433136
0.492074 0.008278 0.433136
0.059574 1.500000 0.004614
-0.190605 1.164551 0.371271
-0.190605 -0.005883 0.371271
-0.056983 1.500000 -0.061319
-0.392595 1.167152 0.042939
-0.392595 -0.003283 0.042939
0.025418 1.500000 0.038028
0.190589 1.173922 -0.170086
0.190589 0.003488 -0.170086
0.040040 1.500000 -0.033305
-0.099398 1.168832 -0.062694
-0.099398 -0.001602 -0.062694
0.397761 1.159169 0.224385
0.397761 -0.011265 0.224385
-0.040405 1.500000 -0.066685
0.442807 1.171631 0.050368
0.442807 0.001196 0.050368
0.008254 1.500000 0.045472
-0.614293 1.180428 0.031385
-0.614293 0.009993 0.031385
-0.058917 1.500000 0.026518
-0.323326 1.169726 -0.384407
-0.323326 -0.000709 -0.384407
-0.048096 1.500000 0.036892
0.524253 1.161279 -0.285210
0.524253 -0.009155 -0.285210
-0.056168 1.500000 -0.004407
-0.515468 1.162591 0.019977
-0.515468 -0.007843 0.019977
0.046556 1.500000 0.015051
0.256946 1.172943 -0.344278
0.256946 0.002509 -0.344278
-0.035465 1.500000 -0.065645
0.409911 1.166790 -0.054328
0.409911 -0.003644 -0.054328
-0.026045 1.500000 -0.059240
0.268810 1.168617 0.294105
0.268810 -0.001817 0.294105
-0.024445 1.500000 0.004855
-0.004751 1.171762 0.174907
-0.004751 0.001328 0.174907
-0.013643 1.500000 0.028137
0.107972 1.168901 -0.150643
0.107972 -0.001533 -0.150643
-0.043082 1.500000 -0.013403
0.269764 1.167637 -0.124596
0.269764 -0.002798 -0.124596
-0.023682 1.500000 0.012760
0.628060 1.179844 -0.051655
0.628060 0.009410 -0.051655
0.054779 1.500000 -0.056524
0.748004 1.173172 -0.235389
0.748004 0.002737 -0.235389
0.030416 1.500000 0.043202
0.408927 1.169656 -0.202066
0.408927 -0.000779 -0.202066
-0.026199 1.500000 -0.064895
0.499305 1.176060 -0.396230
0.499305 0.005625 -0.396230
0.066036 1.500000 0.023291
0.096362 1.170092 -0.189595
0.096362 -0.000343 -0.189595
-0.054573 1.500000 -0.052464
-0.357578 1.162129 0.142674
-0.357578 -0.008306 0.142674
0.061832 1.500000 -0.005040
-0.557561 1.170919 -0.154352
-0.557561 0.000484 -0.154352
0.001359 1.500000 -0.017296
-0.705009 1.177243 -0.466469
-0.705009 0.006809 -0.466469
-0.007091 1.500000 -0.047281
0.711652 1.168877 0.062824
0.711652 -0.001558 0.062824
-0.007995 1.500000 0.057919
-0.517714 1.160228 -0.074596
-0.517714 -0.010206 -0.074596
0.045190 1.500000 0.063437
0.316772 1.171352 -0.106414
0.316772 0.000918 -0.106414
0.024051 1.500000 0.030602
-0.239430 1.176930 0.500172
-0.239430 0.006495 0.500172
0.034479 1.500000 0.071138
0.540881 1.167153 -0.316739
0.540881 -0.003281 -0.316739
-0.037282 1.500000 -0.037028
-0.427924 1.166572 0.392492
-0.427924 -0.003863 0.392492
-0.009749 1.500000 -0.039518
-0.580874 1.179457 0.344411
-0.580874 0.009023 0.344411
-0.025137 1.500000 0.057249
0.157482 1.172006 0.439784
0.157482 0.001572 0.439784
0.006740 1.500000 0.009336
0.782897 1.181957 0.082353
0.782897 0.011523 0.082353
0.069519 1.500000 -0.063419
-0.675112 1.164033 -0.122386
-0.675112 -0.006401 -0.122386
0.028980 1.500000 0.015299
0.178044 1.172817 0.438359
0.178044 0.002383 0.438359
0.027384 1.500000 0.008144
-0.636192 1.156905 -0.426082
-0.636192 -0.013530 -0.426082
-0.624570 0.011334 -0.419102
-0.533112 -1.155513 -0.423487
-0.234266 1.163343 0.252863
-0.234266 -0.007092 0.252863
0.042134 1.500000 -0.037403
0.147499 1.166997 0.079854
0.147499 -0.003437 0.079854
-0.003747 1.500000 -0.067383
0.229109 1.170628 -0.466885
0.229109 0.000193 -0.466885
-0.063754 1.500000 -0.045839
-0.560350 1.170648 -0.002577
-0.560350 0.000214 -0.002577
-0.001330 1.500000 -0.007476
0.516823 1.159054 0.141606
0.516823 -0.011380 0.141606
-0.064454 1.500000 -0.006408
0.095317 1.169227 -0.171734
0.095317 -0.001207 -0.171734
-0.055705 1.500000 -0.034524
-0.465744 1.174652 -0.252974
-0.465744 0.004218 -0.252974
-0.049817 1.500000 0.025342
0.112636 1.165314 0.081122
0.112636 -0.005121 0.081122
0.008899 1.176037 -0.339841
0.008899 0.005603 -0.339841
0.000032 1.500000 -0.061783
-0.225156 1.167508 -0.172617
-0.225156 -0.002926 -0.172617
0.050480 1.500000 -0.035250
0.732309 1.168414 -0.382775
0.732309 -0.002021 -0.382775
0.012440 1.500000 0.038893
-0.748083 1.183908 0.212700
-0.748083 0.013473 0.212700
-0.053280 1.500000 0.067119
0.218829 1.174034 -0.281493
0.218829 0.003600 -0.281493
0.068291 1.500000 -0.003062
0.753832 1.178417 0.033342
0.753832 0.007983 0.033342
0.038758 1.500000 0.028468
0.600980 1.172022 0.258027
0.600980 0.001587 0.258027
0.024691 1.500000 -0.030567
-0.402702 1.170074 0.305834
-0.402702 -0.000361 0.305834
0.014499 1.500000 0.016865
LINES 100 401
3 0 1 2
3 3 4 5
3 6 7 8
3 9 10 11
3 12 13 14
3 15 16 17
3 18 19 20
3 21 22 23
3 24 25 26
3 27 28 29
4 30 31 32 33
3 34 35 36
3 37 38 39
3 40 41 42
3 43 44 45
3 46 47 48
3 49 50 51
3 52 53 54
3 55 56 57
3 58 59 60
3 61 62 63
3 64 65 66
3 67 68 69
3 70 71 72
3 73 74 75
3 76 77 78
3 79 80 81
3 82 83 84
3 85 86 87
3 88 89 90
3 91 92 93
3 94 95 96
3 97 98 99
3 100 101 102
3 103 104 105
3 106 107 108
3 109 110 111
3 112 113 114
3 115 116 117
3 118 119 120
4 121 122 123 124
3 125 126 127
3 128 129 130
3 131 132 133
3 134 135 136
3 137 138 139
3 140 141 142
3 143 144 145
3 146 147 148
3 149 150 151
3 152 153 154
2 155 156
3 157 158 159
3 160 161 162
3 163 164 165
3 166 167 168
3 169 170 171
3 172 173 174
3 175 176 177
3 178 179 180
3 181 182 183
3 184 185 186
3 187 188 189
3 190 191 192
3 193 194 195
3 196 197 198
3 199 200 201
3 202 203 204
3 205 206 207
3 208 209 210
3 211 212 213
3 214 215 216
3 217 218 219
3 220 221 222
3 223 224 225
3 226 227 228
3 229 230 231
3 232 233 234
3 235 236 237
3 238 239 240
3 241 242 243
3 244 245 246
3 247 248 249
4 250 251 252 253
3 254 255 256
3 257 258 259
3 260 261 262
3 263 264 265
3 266 267 268
3 269 270 271
3 272 273 274
2 275 276
3 277 278 279
3 280 281 282
3 283 284 285
3 286 287 288
3 289 290 291
3 292 293 294
3 295 296 297
3 298 299 300
CELL_DATA 100
SCALARS Radiative_path_type float 1
LOOKUP_TABLE path_type
0.5
0.5
0.5
0.5
0.5
0.5
0.5
0.5
0.5
0.5
0.75
0.5
0.5
0.5
0.5
0.5
0.5
0.5
0.5
0.5
0.5
0.5
0.5
0.5
0.5
0.5
0.5
0.5
0.5
0.5
0.5
0.5
0.5
0.5
0.5
0.5
0.5
0.5
0.5
0.5
0.75
0.5
0.5
0.5
0.5
0.5
0.5
0.5
0.5
0.5
0.5
1.0
0.5
0.5
0.5
0.5
0.5
0.5
0.5
0.5
0.5
0.5
0.5
0.5
0.5
0.5
0.5
0.5
0.5
0.5
0.5
0.5
0.5
0.5
0.5
0.5
0.5
0.5
0.5
0.5
0.5
0.5
0.5
0.75
0.5
0.5
0.5
0.5
0.5
0.5
0.5
1.0
0.5
0.5
0.5
0.5
0.5
0.5
0.5
0.5
LOOKUP_TABLE path_type 5
1.0 0.0 0.0 1.0
0.0 1.0 0.0 1.0
0.0 0.0 1.0 1.0
0.0 1.0 1.0 1.0
1.0 1.0 0.0 1.0
