# vtk DataFile Version 2.0
Radiative paths
ASCII
DATASET POLYDATA
POINTS 302 float
0.082690 1.047040 0.469303
0.082690 0.003464 -0.017324
-0.011342 1.500000 -0.017324
-0.665227 1.041551 0.500575
-0.665227 -0.002025 0.013947
-0.004586 1.500000 0.013947
-0.544035 1.044208 0.535467
-0.544035 0.000632 0.048839
-0.072983 1.500000 0.048839
-0.117916 1.057757 0.426241
-0.117916 0.014181 -0.060387
-0.024557 1.500000 -0.060387
-0.184005 1.044564 0.495496
-0.184005 0.000988 0.008868
-0.089817 1.500000 0.008868
-0.116129 1.050738 0.457600
-0.116129 0.007162 -0.029028
-0.022329 1.500000 -0.029028
-0.473528 1.029981 0.548087
-0.473528 -0.013595 0.061460
0.001993 1.500000 0.061460
-0.701665 1.039283 0.545065
-0.701665 -0.004293 0.058438
-0.040027 1.500000 0.058438
-0.048894 1.039145 0.499864
-0.048894 -0.004431 0.013236
0.045634 1.500000 0.013236
-0.068604 1.035868 0.517554
-0.068604 -0.007708 0.030927
0.026130 1.500000 0.030927
0.001512 1.032486 0.522838
0.001512 -0.011090 0.036210
-0.093434 1.500000 0.036210
0.077484 1.051898 0.446639
0.077484 0.008322 -0.039988
-0.016243 1.500000 -0.039988
-0.717322 1.043835 0.540358
-0.717322 0.000259 0.053730
-0.057686 1.500000 0.053730
0.363312 1.064315 0.429241
0.363312 0.020739 -0.057387
0.084472 1.500000 -0.057387
0.190076 1.037688 0.472325
0.190076 -0.005888 -0.014303
-0.093784 1.500000 -0.014303
-0.232414 1.027359 0.537051
-0.232414 -0.016217 0.050423
0.053393 1.500000 0.050423
-0.133774 1.047869 0.473148
-0.133774 0.004293 -0.013480
-0.039794 1.500000 -0.013480
0.198996 1.039521 0.468043
0.198996 -0.004055 -0.018584
-0.084519 1.500000 -0.018584
-0.158467 1.046256 0.484079
-0.158467 0.002680 -0.002548
-0.064386 1.500000 -0.002548
-0.329682 1.047697 0.488780
-0.329682 0.004121 0.002153
-0.047708 1.500000 0.002153
-0.072028 1.041943 0.490690
-0.072028 -0.001633 0.004063
0.022324 1.500000 0.004063
-0.607369 1.020720 0.535247
-0.607369 -0.022856 0.048619
0.062434 1.500000 0.048619
0.576371 1.017804 0.518286
0.576371 -0.025772 0.031659
0.561783 0.007394 0.031659
0.435710 -1.033507 -0.444250
-0.407304 1.044956 0.435201
-0.407304 0.001380 -0.051427
0.063513 1.500000 -0.051427
-0.206516 1.028974 0.518479
-0.206516 -0.014602 0.031851
0.078987 1.500000 0.031851
0.737595 1.048070 0.541417
0.737595 0.004494 0.054789
0.079822 1.500000 0.054789
-0.422180 1.041264 0.462004
-0.422180 -0.002312 -0.024624
0.049796 1.500000 -0.024624
0.588436 1.032082 0.468234
0.588436 -0.011494 -0.018394
-0.076369 1.500000 -0.018394
0.551503 1.062362 0.460848
0.551503 0.018786 -0.025780
0.086155 1.500000 -0.025780
-0.511995 1.058826 0.448392
-0.511995 0.015250 -0.038235
-0.045536 1.500000 -0.038235
-0.179257 1.040817 0.511672
-0.179257 -0.002759 0.025044
-0.084834 1.500000 0.025044
0.178316 1.061195 0.419710
0.178316 0.017619 -0.066917
0.085173 1.500000 -0.066917
-0.701209 1.049812 0.499243
-0.701209 0.006236 0.012615
-0.044201 1.500000 0.012615
0.644510 1.048887 0.449217
0.644510 0.005311 -0.037411
-0.012904 1.500000 -0.037411
-0.428872 1.021901 0.551983
-0.428872 -0.021675 0.065356
0.049188 1.500000 0.065356
0.138590 1.045065 0.486498
0.138590 0.001489 -0.000130
0.044434 1.500000 -0.000130
0.716178 1.067689 0.436446
0.716178 0.024113 -0.050181
0.067033 1.500000 -0.050181
-0.381968 1.036321 0.455244
-0.381968 -0.007255 -0.031383
-0.374652 0.016033 -0.031383
-0.239110 -1.022649 -0.509531
0.275505 1.045860 0.473241
0.275505 0.002284 -0.013386
-0.006815 1.500000 -0.013386
0.538933 1.040190 0.549534
0.538933 -0.003386 0.062907
0.066620 1.500000 0.062907
0.278425 1.058356 0.418669
0.278425 0.014780 -0.067959
-0.001539 1.500000 -0.067959
-0.486959 1.056981 0.438762
-0.486959 0.013405 -0.047866
-0.019921 1.500000 -0.047866
-0.468660 1.040785 0.497075
-0.468660 -0.002791 0.010447
0.003467 1.500000 0.010447
0.729236 1.045980 0.542461
0.729236 0.002404 0.055834
0.070543 1.500000 0.055834
0.350072 1.045439 0.507809
0.350072 0.001863 0.021181
0.067673 1.500000 0.021181
0.348877 1.048038 0.495666
0.348877 0.004462 0.009038
0.066968 1.500000 0.009038
-0.107097 1.056826 0.428831
-0.107097 0.013250 -0.057797
-0.013680 1.500000 -0.057797
0.693319 1.050485 0.488829
0.693319 0.006909 0.002201
0.036608 1.500000 0.002201
-0.548823 1.069421 0.427874
-0.548823 0.025845 -0.058754
-0.085692 1.500000 -0.058754
0.127593 1.039317 0.510764
0.127593 -0.004259 0.024137
0.033076 1.500000 0.024137
-0.453995 1.048115 0.454408
-0.453995 0.004539 -0.032220
0.015829 1.500000 -0.032220
0.291507 1.059196 0.420649
0.291507 0.015620 -0.065978
0.011702 1.500000 -0.065978
-0.153633 1.043967 0.493677
-0.153633 0.000391 0.007049
-0.059408 1.500000 0.007049
-0.224036 1.036579 0.492168
-0.224036 -0.006997 0.005541
0.060033 1.500000 0.005541
0.270004 1.055776 0.426512
0.270004 0.012199 -0.060116
-0.010447 1.500000 -0.060116
0.474310 1.032747 0.536468
0.474310 -0.010829 0.049840
-0.000342 1.500000 0.049840
0.369910 1.049759 0.497194
0.369910 0.006183 0.010566
0.088325 1.500000 0.010566
0.281709 1.051834 0.449261
0.281709 0.008258 -0.037367
0.000515 1.500000 -0.037367
-0.725587 1.054152 0.503758
-0.725587 0.010576 0.017131
-0.070489 1.500000 0.017131
-0.388756 1.033571 0.472163
-0.388756 -0.010005 -0.014465
0.085637 1.500000 -0.014465
0.648379 1.028490 0.540824
0.648379 -0.015086 0.054197
-0.018006 1.500000 0.054197
-0.441521 1.040027 0.481167
-0.441521 -0.003549 -0.005461
0.030844 1.500000 -0.005461
0.182668 1.042661 0.503869
0.182668 -0.000915 0.017242
0.088361 1.500000 0.017242
-0.411803 1.020166 0.547517
-0.411803 -0.023410 0.060889
0.066802 1.500000 0.060889
0.126593 1.040556 0.505035
0.126593 -0.003020 0.018407
0.032153 1.500000 0.018407
0.221370 1.028899 0.525326
0.221370 -0.014677 0.038698
-0.064147 1.500000 0.038698
0.661943 1.043052 0.490975
0.661943 -0.000524 0.004347
0.001963 1.500000 0.004347
0.062915 1.029999 0.543158
0.062915 -0.013577 0.056531
-0.032189 1.500000 0.056531
0.502957 1.044365 0.505642
0.502957 0.000789 0.019014
0.031955 1.500000 0.019014
0.694997 1.065977 0.423646
0.694997 0.022401 -0.062982
0.045100 1.500000 -0.062982
0.642714 1.031798 0.521166
0.642714 -0.011778 0.034539
-0.022216 1.500000 0.034539
-0.534364 1.041508 0.540494
-0.534364 -0.002068 0.053866
-0.062464 1.500000 0.053866
0.206804 1.046870 0.438618
0.206804 0.003294 -0.048009
-0.075325 1.500000 -0.048009
0.644741 1.052434 0.434147
0.644741 0.008858 -0.052481
-0.011113 1.500000 -0.052481
-0.273464 1.028032 0.552038
-0.273464 -0.015545 0.065410
0.012216 1.500000 0.065410
-0.245804 1.046300 0.458260
-0.245804 0.002724 -0.028368
0.036432 1.500000 -0.028368
0.252916 1.037114 0.502437
0.252916 -0.006462 0.015809
-0.031052 1.500000 0.015809
0.745690 1.064182 0.479680
0.745690 0.020605 -0.006948
0.095003 1.500000 -0.006948
-0.183565 1.045954 0.489163
-0.183565 0.002378 0.002535
-0.089464 1.500000 0.002535
0.549384 1.052923 0.500897
0.549384 0.009347 0.014270
0.081070 1.500000 0.014270
-0.743788 1.076071 0.426618
-0.743788 0.032495 -0.060009
-0.098331 1.500000 -0.060009
0.017484 1.033726 0.519620
0.017484 -0.009850 0.032993
-0.077385 1.500000 0.032993
-0.182550 1.037194 0.528489
-0.182550 -0.006382 0.041861
-0.087899 1.500000 0.041861
-0.310170 1.033168 0.545169
-0.310170 -0.010408 0.058542
-0.025458 1.500000 0.058542
-0.717580 1.041620 0.550149
-0.717580 -0.001956 0.063522
-0.056970 1.500000 0.063522
-0.616780 1.029639 0.505769
-0.616780 -0.013938 0.019142
0.049100 1.500000 0.019142
-0.556523 1.066122 0.447860
-0.556523 0.022545 -0.038767
-0.092356 1.500000 -0.038767
-0.676538 1.052119 0.465797
-0.676538 0.008543 -0.020830
-0.020546 1.500000 -0.020830
0.650505 1.036193 0.509644
0.650505 -0.007383 0.023016
-0.012492 1.500000 0.023016
0.339810 1.058180 0.446361
0.339810 0.014604 -0.040266
0.059813 1.500000 -0.040266
-0.736643 1.059869 0.489651
-0.736643 0.016293 0.003024
-0.084059 1.500000 0.003024
-0.472140 1.040056 0.502753
-0.472140 -0.003520 0.016125
0.000216 1.500000 0.016125
-0.292323 1.051032 0.457498
-0.292323 0.007456 -0.029129
-0.010978 1.500000 -0.029129
0.493896 1.060118 0.429870
0.493896 0.016542 -0.056758
0.027843 1.500000 -0.056758
-0.603727 1.021793 0.527152
-0.603727 -0.021783 0.040524
0.065603 1.500000 0.040524
0.391296 1.035748 0.464381
0.391296 -0.007828 -0.022247
-0.082413 1.500000 -0.022247
0.328582 1.036655 0.537651
0.328582 -0.006921 0.051023
0.044528 1.500000 0.051023
0.621127 1.028688 0.514009
0.621127 -0.014888 0.027381
-0.045172 1.500000 0.027381
-0.444635 1.054557 0.419414
-0.444635 0.010981 -0.067213
0.023165 1.500000 -0.067213
0.660271 1.036125 0.519240
0.660271 -0.007451 0.032612
-0.002756 1.500000 0.032612
LINES 100 402
3 0 1 2
3 3 4 5
3 6 7 8
3 9 10 11
3 12 13 14
3 15 16 17
3 18 19 20
3 21 22 23
3 24 25 26
3 27 28 29
3 30 31 32
3 33 34 35
3 36 37 38
3 39 40 41
3 42 43 44
3 45 46 47
3 48 49 50
3 51 52 53
3 54 55 56
3 57 58 59
3 60 61 62
3 63 64 65
4 66 67 68 69
3 70 71 72
3 73 74 75
3 76 77 78
3 79 80 81
3 82 83 84
3 85 86 87
3 88 89 90
3 91 92 93
3 94 95 96
3 97 98 99
3 100 101 102
3 103 104 105
3 106 107 108
3 109 110 111
4 112 113 114 115
3 116 117 118
3 119 120 121
3 122 123 124
3 125 126 127
3 128 129 130
3 131 132 133
3 134 135 136
3 137 138 139
3 140 141 142
3 143 144 145
3 146 147 148
3 149 150 151
3 152 153 154
3 155 156 157
3 158 159 160
3 161 162 163
3 164 165 166
3 167 168 169
3 170 171 172
3 173 174 175
3 176 177 178
3 179 180 181
3 182 183 184
3 185 186 187
3 188 189 190
3 191 192 193
3 194 195 196
3 197 198 199
3 200 201 202
3 203 204 205
3 206 207 208
3 209 210 211
3 212 213 214
3 215 216 217
3 218 219 220
3 221 222 223
3 224 225 226
3 227 228 229
3 230 231 232
3 233 234 235
3 236 237 238
3 239 240 241
3 242 243 244
3 245 246 247
3 248 249 250
3 251 252 253
3 254 255 256
3 257 258 259
3 260 261 262
3 263 264 265
3 266 267 268
3 269 270 271
3 272 273 274
3 275 276 277
3 278 279 280
3 281 282 283
3 284 285 286
3 287 288 289
3 290 291 292
3 293 294 295
3 296 297 298
3 299 300 301
CELL_DATA 100
SCALARS Radiative_path_type float 1
LOOKUP_TABLE path_type
0.5
0.5
0.5
0.5
0.5
0.5
0.5
0.5
0.5
0.5
0.5
0.5
0.5
0.5
0.5
0.5
0.5
0.5
0.5
0.5
0.5
0.5
0.75
0.5
0.5
0.5
0.5
0.5
0.5
0.5
0.5
0.5
0.5
0.5
0.5
0.5
0.5
0.75
0.5
0.5
0.5
0.5
0.5
0.5
0.5
0.5
0.5
0.5
0.5
0.5
0.5
0.5
0.5
0.5
0.5
0.5
0.5
0.5
0.5
0.5
0.5
0.5
0.5
0.5
0.5
0.5
0.5
0.5
0.5
0.5
0.5
0.5
0.5
0.5
0.5
0.5
0.5
0.5
0.5
0.5
0.5
0.5
0.5
0.5
0.5
0.5
0.5
0.5
0.5
0.5
0.5
0.5
0.5
0.5
0.5
0.5
0.5
0.5
0.5
0.5
LOOKUP_TABLE path_type 5
1.0 0.0 0.0 1.0
0.0 1.0 0.0 1.0
0.0 0.0 1.0 1.0
0.0 1.0 1.0 1.0
1.0 1.0 0.0 1.0
