# vtk DataFile Version 2.0
Radiative paths
ASCII
DATASET POLYDATA
POINTS 293 float
0.418125 1.048442 0.832568
0.418125 -0.007850 0.328743
-0.019051 1.500000 0.038331
0.311778 1.054396 0.380514
0.311778 -0.001896 -0.123311
0.018507 1.500000 0.013962
0.546064 1.065527 0.178628
0.546064 0.009235 -0.325198
-0.027284 1.500000 -0.047816
0.715062 1.069655 0.448451
0.715062 0.013363 -0.055375
0.002567 1.500000 -0.060231
-0.420714 1.068597 0.585523
-0.420714 0.012305 0.081697
-0.007036 1.500000 -0.063998
0.719001 1.061877 0.621488
0.719001 0.005585 0.117663
0.002778 1.500000 -0.028690
0.608321 1.054022 0.104670
0.608321 -0.002270 -0.399156
0.030548 1.500000 0.022582
-0.720231 1.046967 0.567117
-0.720231 -0.009325 0.063291
-0.014772 1.500000 0.058361
-0.546264 1.051209 0.665072
-0.546264 -0.005082 0.161247
0.014731 1.500000 0.013849
-0.529714 1.041219 0.702177
-0.529714 -0.015073 0.198352
0.035004 1.500000 0.049976
0.367781 1.034759 0.260004
0.367781 -0.021532 -0.243822
0.363108 -0.005417 -0.240823
0.260272 -1.058726 -0.740380
0.718953 1.053820 0.959266
0.718953 -0.002472 0.455440
-0.001131 1.500000 0.023830
0.445582 1.043481 0.120815
0.445582 -0.012810 -0.383010
0.006968 1.500000 0.041686
0.168895 1.061256 0.490895
0.168895 0.004964 -0.012930
0.018494 1.500000 -0.017814
0.605074 1.062756 0.785554
0.605074 0.006464 0.281729
0.030660 1.500000 -0.005926
0.397398 1.041866 0.106341
0.397398 -0.014426 -0.397484
-0.041684 1.500000 0.027665
0.785644 1.069512 0.665106
0.785644 0.013220 0.161281
0.073080 1.500000 0.015676
-0.139063 1.062795 0.205596
-0.139063 0.006504 -0.298230
-0.006540 1.500000 -0.020340
0.562670 1.029152 0.147140
0.562670 -0.027140 -0.356685
-0.660056 1.036422 0.110106
-0.660056 -0.019870 -0.393720
0.050331 1.500000 0.032958
-0.393351 1.055960 0.900989
-0.393351 -0.000331 0.397164
0.023841 1.500000 -0.033831
-0.364860 1.043837 0.991626
-0.364860 -0.012455 0.487801
0.055703 1.500000 0.053323
0.652062 1.036776 0.669323
0.652062 -0.019516 0.165498
0.638364 0.009065 0.162699
0.545911 -1.047994 -0.330930
-0.181526 1.063162 0.756715
-0.181526 0.006870 0.252890
-0.049036 1.500000 -0.034687
0.014527 1.058693 0.637143
0.014527 0.002401 0.133318
0.005641 1.500000 -0.013347
-0.314054 1.067138 0.340928
-0.314054 0.010846 -0.162897
-0.040944 1.500000 -0.026789
0.062821 1.069569 0.450349
0.062821 0.013277 -0.053476
0.054000 1.500000 -0.058333
0.566448 1.034821 0.283612
0.566448 -0.021471 -0.220213
0.760207 1.066155 0.224612
0.760207 0.009863 -0.279213
0.046034 1.500000 -0.001948
-0.573505 1.048194 0.405268
-0.573505 -0.008098 -0.098557
-0.011387 1.500000 0.039283
-0.472021 1.071421 0.202450
-0.472021 0.015129 -0.301375
-0.059128 1.500000 -0.025090
-0.318572 1.063361 0.215707
-0.318572 0.007069 -0.288118
-0.044769 1.500000 -0.010334
-0.384402 1.050471 0.801410
-0.384402 -0.005821 0.297584
0.034317 1.500000 0.007563
0.563824 1.053915 0.791576
0.563824 -0.002377 0.287751
-0.013991 1.500000 -0.001607
-0.414142 1.066594 0.192025
-0.414142 0.010302 -0.311801
0.000094 1.500000 -0.034617
-0.503193 1.049106 0.632286
-0.503193 -0.007186 0.128461
0.058585 1.500000 -0.019143
-0.067125 1.049484 0.980143
-0.067125 -0.006808 0.476318
0.066579 1.500000 0.043462
-0.331659 1.056516 0.832030
-0.331659 0.000224 0.328204
-0.056600 1.500000 0.039348
0.335899 1.054107 0.244701
0.335899 -0.002185 -0.259125
0.042572 1.500000 0.020382
0.392649 1.050908 0.080543
0.392649 -0.005384 -0.423282
-0.043812 1.500000 -0.000671
0.197662 1.058568 0.509570
0.197662 0.002277 0.005744
0.046991 1.500000 0.000852
-0.176943 1.049456 0.861548
-0.176943 -0.006835 0.357723
0.689040 1.040255 0.251588
0.689040 -0.016037 -0.252237
-0.037545 1.500000 0.029847
0.101451 1.046133 0.851474
0.101451 -0.010159 0.347649
-0.050471 1.500000 0.056793
0.105089 1.069144 0.311261
0.105089 0.012852 -0.192564
-0.044518 1.500000 -0.056639
-0.135086 1.061567 0.208806
-0.135086 0.005275 -0.295020
-0.002454 1.500000 -0.016901
-0.559831 1.053752 0.232842
-0.559831 -0.002540 -0.270984
0.000215 1.500000 0.008589
0.413467 1.028629 0.147656
0.413467 -0.027662 -0.356169
0.378431 1.052585 0.883792
0.378431 -0.003707 0.379966
-0.057543 1.500000 -0.051998
0.743361 1.043352 0.281125
0.743361 -0.012940 -0.222701
0.018259 1.500000 0.058807
0.399700 1.051928 0.925790
0.399700 -0.004364 0.421965
-0.036465 1.500000 -0.010189
0.297359 1.052899 0.822031
0.297359 -0.003392 0.318206
0.003796 1.500000 0.028652
-0.364320 1.044262 0.238481
-0.364320 -0.012030 -0.265345
0.056125 1.500000 0.015994
-0.708155 1.070734 0.454622
-0.708155 0.014442 -0.049203
-0.013806 1.500000 -0.054056
-0.352652 1.050664 0.896042
-0.352652 -0.005628 0.392216
0.066013 1.500000 -0.040300
0.292526 1.059971 0.891588
0.292526 0.003679 0.387763
0.000344 1.500000 -0.042081
-0.750268 1.060512 0.392315
-0.750268 0.004221 -0.111510
-0.051140 1.500000 0.025204
-0.007765 1.056331 0.933637
-0.007765 0.000039 0.429811
-0.016665 1.500000 -0.001077
-0.016765 1.042524 0.266803
-0.016765 -0.013768 -0.237022
-0.025747 1.500000 0.044640
0.707617 1.061294 0.739662
0.707617 0.005002 0.235837
-0.008886 1.500000 -0.052100
0.388472 1.026985 0.142286
0.388472 -0.029307 -0.361540
0.331199 1.063467 0.494265
0.331199 0.007176 -0.009561
0.039701 1.500000 -0.014437
0.316432 1.057857 0.943834
0.316432 0.001565 0.440008
0.023838 1.500000 0.009558
-0.138732 1.055634 0.945676
-0.138732 -0.000658 0.441851
-0.005574 1.500000 0.010762
-0.543384 1.044368 0.398566
-0.543384 -0.011923 -0.105260
0.020160 1.500000 0.032930
0.271810 1.040341 0.569597
0.271810 -0.015951 0.065772
0.625534 1.078638 0.453591
0.625534 0.022346 -0.050234
0.057228 1.500000 -0.055061
0.750231 1.049862 0.266465
0.750231 -0.006430 -0.237360
0.028250 1.500000 0.042936
0.406809 1.069565 0.304032
0.406809 0.013274 -0.199794
-0.024243 1.500000 -0.063907
0.500055 1.056991 0.106231
0.500055 0.000699 -0.397595
0.065358 1.500000 0.023309
0.095756 1.067333 0.316054
0.095756 0.011041 -0.187771
-0.054033 1.500000 -0.051680
-0.357503 1.048507 0.646561
-0.357503 -0.007785 0.142735
0.061762 1.500000 -0.004927
-0.556840 1.060540 0.350080
-0.556840 0.004248 -0.153745
0.000676 1.500000 -0.017034
-0.702668 1.072961 0.039834
-0.702668 0.016669 -0.463992
-0.009360 1.500000 -0.047571
0.714721 1.041915 0.565170
0.714721 -0.014376 0.061345
-0.011070 1.500000 0.056398
-0.520404 1.032016 0.427033
-0.520404 -0.024276 -0.076792
-0.018240 1.072956 0.173241
-0.018240 0.016664 -0.330584
-0.027041 1.500000 -0.054585
0.398577 1.056057 0.622127
0.398577 -0.000235 0.118302
-0.036391 1.500000 -0.028621
-0.447290 1.057931 0.812560
-0.447290 0.001639 0.308735
-0.030645 1.500000 0.020151
-0.463498 1.066160 0.355156
-0.463498 0.009868 -0.148670
-0.049142 1.500000 -0.012472
0.462502 1.081134 0.027664
0.462502 0.024842 -0.476161
0.034805 1.500000 -0.062035
0.757313 1.052749 0.717633
0.757313 -0.003543 0.213808
0.617623 1.079215 0.313490
0.617623 0.022924 -0.190336
0.049540 1.500000 -0.055331
0.766740 1.061093 0.838106
0.766740 0.004802 0.334281
0.050141 1.500000 0.046305
-0.038820 1.058570 0.905461
-0.038820 0.002279 0.401636
-0.047707 1.500000 -0.028610
-0.654376 1.058045 0.455034
-0.654376 0.001754 -0.048792
0.045905 1.500000 -0.053686
0.090721 1.058097 0.486608
0.090721 0.001806 -0.017217
-0.059997 1.500000 -0.022111
0.251991 1.072862 0.161352
0.251991 0.016571 -0.342474
-0.037673 1.500000 -0.066457
0.054512 1.039578 0.127584
0.054512 -0.016713 -0.376241
0.045513 1.500000 0.049551
0.304606 1.041432 0.424767
0.304606 -0.014860 -0.079059
0.008805 1.500000 0.059400
0.102670 1.062404 0.059820
0.102670 0.006112 -0.444005
-0.047615 1.500000 -0.024621
0.586981 1.053455 0.383805
0.586981 -0.002837 -0.120020
0.008990 1.500000 0.017339
0.228351 1.037681 0.115020
0.228351 -0.018611 -0.388805
-0.068183 1.500000 0.037520
0.159288 1.058853 0.909324
0.159288 0.002561 0.405499
0.008646 1.500000 -0.024665
0.008857 1.075162 0.166719
0.008857 0.018870 -0.337106
0.000069 1.500000 -0.061517
-0.224426 1.060926 0.332445
-0.224426 0.004634 -0.171380
0.049824 1.500000 -0.034704
0.734286 1.046136 0.118958
0.734286 -0.010156 -0.384867
0.010519 1.500000 0.039084
-0.751326 1.055750 0.715499
-0.751326 -0.000541 0.211673
0.693532 1.055039 0.625427
0.693532 -0.001252 0.121601
-0.025968 1.500000 -0.025421
0.204162 1.064825 0.207079
0.204162 0.008534 -0.296746
0.054120 1.500000 -0.019234
LINES 100 393
3 0 1 2
3 3 4 5
3 6 7 8
3 9 10 11
3 12 13 14
3 15 16 17
3 18 19 20
3 21 22 23
3 24 25 26
3 27 28 29
4 30 31 32 33
3 34 35 36
3 37 38 39
3 40 41 42
3 43 44 45
3 46 47 48
3 49 50 51
3 52 53 54
2 55 56
3 57 58 59
3 60 61 62
3 63 64 65
4 66 67 68 69
3 70 71 72
3 73 74 75
3 76 77 78
3 79 80 81
2 82 83
3 84 85 86
3 87 88 89
3 90 91 92
3 93 94 95
3 96 97 98
3 99 100 101
3 102 103 104
3 105 106 107
3 108 109 110
3 111 112 113
3 114 115 116
3 117 118 119
3 120 121 122
2 123 124
3 125 126 127
3 128 129 130
3 131 132 133
3 134 135 136
3 137 138 139
2 140 141
3 142 143 144
3 145 146 147
3 148 149 150
3 151 152 153
3 154 155 156
3 157 158 159
3 160 161 162
3 163 164 165
3 166 167 168
3 169 170 171
3 172 173 174
3 175 176 177
2 178 179
3 180 181 182
3 183 184 185
3 186 187 188
3 189 190 191
2 192 193
3 194 195 196
3 197 198 199
3 200 201 202
3 203 204 205
3 206 207 208
3 209 210 211
3 212 213 214
3 215 216 217
3 218 219 220
2 221 222
3 223 224 225
3 226 227 228
3 229 230 231
3 232 233 234
3 235 236 237
2 238 239
3 240 241 242
3 243 244 245
3 246 247 248
3 249 250 251
3 252 253 254
3 255 256 257
3 258 259 260
3 261 262 263
3 264 265 266
3 267 268 269
3 270 271 272
3 273 274 275
3 276 277 278
3 279 280 281
3 282 283 284
2 285 286
3 287 288 289
3 290 291 292
CELL_DATA 100
SCALARS Radiative_path_type float 1
LOOKUP_TABLE path_type
0.5
0.5
0.5
0.5
0.5
0.5
0.5
0.5
0.5
0.5
0.75
0.5
0.5
0.5
0.5
0.5
0.5
0.5
1.0
0.5
0.5
0.5
0.75
0.5
0.5
0.5
0.5
1.0
0.5
0.5
0.5
0.5
0.5
0.5
0.5
0.5
0.5
0.5
0.5
0.5
0.5
1.0
0.5
0.5
0.5
0.5
0.5
1.0
0.5
0.5
0.5
0.5
0.5
0.5
0.5
0.5
0.5
0.5
0.5
0.5
1.0
0.5
0.5
0.5
0.5
1.0
0.5
0.5
0.5
0.5
0.5
0.5
0.5
0.5
0.5
1.0
0.5
0.5
0.5
0.5
0.5
1.0
0.5
0.5
0.5
0.5
0.5
0.5
0.5
0.5
0.5
0.5
0.5
0.5
0.5
0.5
0.5
1.0
0.5
0.5
LOOKUP_TABLE path_type 5
1.0 0.0 0.0 1.0
0.0 1.0 0.0 1.0
0.0 0.0 1.0 1.0
0.0 1.0 1.0 1.0
1.0 1.0 0.0 1.0
