# vtk DataFile Version 2.0
Radiative paths
ASCII
DATASET POLYDATA
POINTS 293 float
0.418141 1.045678 0.838076
0.418141 -0.007957 0.328729
-0.019066 1.500000 0.038296
0.311781 1.051706 0.386026
0.311781 -0.001930 -0.123321
0.018505 1.500000 0.013955
0.546039 1.062983 0.184189
0.546039 0.009348 -0.325158
-0.027266 1.500000 -0.047797
0.715021 1.067155 0.454010
0.715021 0.013519 -0.055337
0.002600 1.500000 -0.060193
-0.420687 1.066112 0.591076
-0.420687 0.012476 0.081728
-0.007057 1.500000 -0.063950
0.718982 1.059297 0.627025
0.718982 0.005662 0.117677
0.002795 1.500000 -0.028668
0.608333 1.051315 0.110170
0.608333 -0.002320 -0.399177
0.030541 1.500000 0.022574
-0.720269 1.044163 0.572603
-0.720269 -0.009472 0.063255
-0.014742 1.500000 0.058324
-0.546272 1.048513 0.670587
-0.546272 -0.005123 0.161240
0.014737 1.500000 0.013838
-0.529743 1.038421 0.707674
-0.529743 -0.015214 0.198327
0.035028 1.500000 0.049937
0.367798 1.031999 0.265495
0.367798 -0.021636 -0.243852
0.363122 -0.005509 -0.240851
0.260288 -1.056207 -0.745867
0.718969 1.051100 0.964781
0.718969 -0.002536 0.455434
-0.001146 1.500000 0.023805
0.445599 1.040727 0.126299
0.445599 -0.012908 -0.383048
0.006956 1.500000 0.041676
0.168892 1.058647 0.496428
0.168892 0.005012 -0.012920
0.018496 1.500000 -0.017803
0.605069 1.060125 0.791079
0.605069 0.006489 0.281731
0.030665 1.500000 -0.005919
0.397410 1.039141 0.111840
0.397410 -0.014494 -0.397508
-0.041693 1.500000 0.027661
0.785649 1.066837 0.670621
0.785649 0.013202 0.161274
0.073076 1.500000 0.015667
-0.139060 1.060189 0.211134
-0.139060 0.006554 -0.298213
-0.006542 1.500000 -0.020333
0.562709 1.026325 0.152598
0.562709 -0.027311 -0.356749
-0.660078 1.033683 0.115600
-0.660078 -0.019952 -0.393747
0.050347 1.500000 0.032954
-0.393339 1.053388 0.906519
-0.393339 -0.000247 0.397172
0.023830 1.500000 -0.033799
-0.364884 1.041022 0.997134
-0.364884 -0.012613 0.487787
0.055724 1.500000 0.053264
0.652079 1.034052 0.674836
0.652079 -0.019583 0.165488
0.638362 0.009038 0.162685
0.545919 -1.045461 -0.336383
-0.181521 1.060602 0.762249
-0.181521 0.006967 0.252902
-0.049040 1.500000 -0.034656
0.014527 1.056072 0.642672
0.014527 0.002437 0.133324
0.005641 1.500000 -0.013337
-0.314047 1.064553 0.346469
-0.314047 0.010918 -0.162879
-0.040949 1.500000 -0.026777
0.062820 1.067066 0.455905
0.062820 0.013430 -0.053442
0.054000 1.500000 -0.058298
0.566483 1.032009 0.289083
0.566483 -0.021627 -0.220264
0.760204 1.063510 0.230134
0.760204 0.009875 -0.279213
0.046037 1.500000 -0.001950
-0.573526 1.045440 0.410762
-0.573526 -0.008195 -0.098585
-0.011371 1.500000 0.039264
-0.472010 1.068832 0.207991
-0.472010 0.015197 -0.301356
-0.059136 1.500000 -0.025084
-0.318569 1.060733 0.221237
-0.318569 0.007098 -0.288111
-0.044771 1.500000 -0.010331
-0.384406 1.047786 0.806928
-0.384406 -0.005849 0.297581
0.034321 1.500000 0.007555
0.563823 1.051259 0.797099
0.563823 -0.002377 0.287751
-0.013991 1.500000 -0.001606
-0.414128 1.064022 0.197575
-0.414128 0.010387 -0.311772
0.000084 1.500000 -0.034605
-0.503186 1.046485 0.637817
-0.503186 -0.007150 0.128470
0.058579 1.500000 -0.019130
-0.067131 1.046705 0.985655
-0.067131 -0.006931 0.476308
0.066584 1.500000 0.043417
-0.331668 1.053763 0.837538
-0.331668 0.000128 0.328191
-0.056592 1.500000 0.039315
0.335904 1.051403 0.250205
0.335904 -0.002232 -0.259142
0.042569 1.500000 0.020374
0.392649 1.048250 0.086067
0.392649 -0.005386 -0.423280
-0.043812 1.500000 -0.000668
0.197661 1.055913 0.515091
0.197661 0.002277 0.005744
0.046991 1.500000 0.000851
-0.176951 1.046622 0.867047
-0.176951 -0.007013 0.357700
0.689062 1.037520 0.257087
0.689062 -0.016115 -0.252261
-0.037562 1.500000 0.029838
0.101459 1.043320 0.856976
0.101459 -0.010316 0.347629
-0.050478 1.500000 0.056742
0.105081 1.066629 0.316823
0.105081 0.012994 -0.192524
-0.044512 1.500000 -0.056612
-0.135084 1.058952 0.214341
-0.135084 0.005317 -0.295006
-0.002456 1.500000 -0.016895
-0.559836 1.051075 0.238357
-0.559836 -0.002561 -0.270991
0.000218 1.500000 0.008586
0.413497 1.025800 0.153114
0.413497 -0.027835 -0.356233
0.378412 1.050052 0.889326
0.378412 -0.003584 0.379979
-0.057527 1.500000 -0.051951
0.743400 1.040556 0.286598
0.743400 -0.013079 -0.222750
-0.190000 1.061408 0.880256
-0.190000 0.007773 0.370909
-0.057590 1.500000 -0.057759
-0.393838 1.041696 0.551322
-0.393838 -0.011939 0.041975
0.026581 1.500000 0.037036
0.190193 1.064552 0.340430
0.190193 0.010917 -0.168917
0.040392 1.500000 -0.032815
-0.098699 1.067045 0.448338
-0.098699 0.013410 -0.061009
0.033211 1.500000 -0.065866
0.541813 1.046181 0.947435
0.541813 -0.007455 0.438088
-0.037954 1.500000 0.005046
-0.165529 1.054144 0.661835
-0.165529 0.000509 0.152488
-0.032474 1.500000 0.005638
0.231492 1.048767 0.084886
0.231492 -0.004869 -0.424461
-0.062359 1.500000 -0.001994
0.176013 1.048287 0.848890
0.176013 -0.005348 0.339543
0.024575 1.500000 0.049613
-0.366364 1.043424 0.382676
-0.366364 -0.010211 -0.126672
0.053576 1.500000 0.011362
-0.171427 1.053545 0.522485
-0.171427 -0.000090 0.013138
-0.038319 1.500000 0.008238
0.677581 1.041233 0.815633
0.677581 -0.012403 0.306286
-0.047263 1.500000 0.014997
0.331195 1.060853 0.499795
0.331195 0.007218 -0.009552
0.039704 1.500000 -0.014428
0.316435 1.055179 0.949353
0.316435 0.001544 0.440006
0.023836 1.500000 0.009550
-0.138734 1.052949 0.951196
-0.138734 -0.000686 0.441848
-0.005573 1.500000 0.010751
-0.543403 1.041625 0.404064
-0.543403 -0.012010 -0.105283
0.020174 1.500000 0.032915
0.271828 1.037523 0.575083
0.271828 -0.016113 0.065735
0.625500 1.076136 0.459147
0.625500 0.022501 -0.050200
0.057254 1.500000 -0.055027
0.750259 1.047106 0.271951
0.750259 -0.006529 -0.237396
0.028230 1.500000 0.042919
0.406782 1.067068 0.309599
0.406782 0.013432 -0.199748
-0.024224 1.500000 -0.063876
0.500064 1.054285 0.111729
0.500064 0.000649 -0.397618
0.065352 1.500000 0.023300
0.095748 1.064806 0.321613
0.095748 0.011170 -0.187734
-0.054028 1.500000 -0.051655
-0.357503 1.045851 0.652084
-0.357503 -0.007784 0.142737
0.061762 1.500000 -0.004925
-0.556831 1.057926 0.355614
-0.556831 0.004291 -0.153733
0.000670 1.500000 -0.017025
-0.702638 1.070416 0.045398
-0.702638 0.016781 -0.463949
-0.009382 1.500000 -0.047560
0.714760 1.039111 0.570657
0.714760 -0.014524 0.061310
-0.011101 1.500000 0.056362
-0.520440 1.029194 0.432511
-0.520440 -0.024442 -0.076836
-0.018241 1.070434 0.178807
-0.018241 0.016799 -0.330540
-0.027041 1.500000 -0.054566
0.398566 1.053469 0.627663
0.398566 -0.000167 0.118315
-0.036382 1.500000 -0.028601
-0.447297 1.055228 0.818075
-0.447297 0.001592 0.308728
-0.030639 1.500000 0.020135
-0.463492 1.063542 0.360686
-0.463492 0.009907 -0.148661
-0.049147 1.500000 -0.012467
0.462476 1.078626 0.033241
0.462476 0.024991 -0.476107
0.034822 1.500000 -0.062022
0.757356 1.049929 0.723122
0.757356 -0.003707 0.213774
0.617591 1.076707 0.319051
0.617591 0.023072 -0.190297
0.049564 1.500000 -0.055305
0.766767 1.058332 0.843610
0.766767 0.004697 0.334263
0.050118 1.500000 0.046268
-0.038820 1.055990 0.910989
-0.038820 0.002355 0.401642
-0.047706 1.500000 -0.028581
-0.654342 1.055516 0.460589
-0.654342 0.001880 -0.048758
0.045879 1.500000 -0.053652
0.090718 1.055495 0.492143
0.090718 0.001860 -0.017204
-0.059995 1.500000 -0.022098
0.251972 1.070367 0.166928
0.251972 0.016731 -0.342419
-0.037660 1.500000 -0.066432
0.054512 1.036805 0.133062
0.054512 -0.016831 -0.376285
0.045512 1.500000 0.049540
0.304623 1.038625 0.430246
0.304623 -0.015010 -0.079101
0.008792 1.500000 0.059371
0.102666 1.059804 0.065365
0.102666 0.006169 -0.443983
-0.047613 1.500000 -0.024614
0.586990 1.050756 0.389315
0.586990 -0.002879 -0.120033
0.008983 1.500000 0.017331
0.228362 1.034932 0.120510
0.228362 -0.018703 -0.388837
-0.068190 1.500000 0.037514
0.159285 1.056264 0.914852
0.159285 0.002628 0.405505
0.008649 1.500000 -0.024640
0.008857 1.072657 0.172291
0.008857 0.019022 -0.337057
0.000070 1.500000 -0.061496
-0.224417 1.058354 0.337992
-0.224417 0.004718 -0.171355
0.049817 1.500000 -0.034686
0.734311 1.043390 0.124444
0.734311 -0.010245 -0.384903
0.010501 1.500000 0.039073
-0.751366 1.052939 0.720988
-0.751366 -0.000696 0.211641
0.693517 1.052442 0.630961
0.693517 -0.001194 0.121614
-0.025955 1.500000 -0.025403
0.204159 1.062218 0.212616
0.204159 0.008583 -0.296731
0.054122 1.500000 -0.019228
LINES 100 393
3 0 1 2
3 3 4 5
3 6 7 8
3 9 10 11
3 12 13 14
3 15 16 17
3 18 19 20
3 21 22 23
3 24 25 26
3 27 28 29
4 30 31 32 33
3 34 35 36
3 37 38 39
3 40 41 42
3 43 44 45
3 46 47 48
3 49 50 51
3 52 53 54
2 55 56
3 57 58 59
3 60 61 62
3 63 64 65
4 66 67 68 69
3 70 71 72
3 73 74 75
3 76 77 78
3 79 80 81
2 82 83
3 84 85 86
3 87 88 89
3 90 91 92
3 93 94 95
3 96 97 98
3 99 100 101
3 102 103 104
3 105 106 107
3 108 109 110
3 111 112 113
3 114 115 116
3 117 118 119
3 120 121 122
2 123 124
3 125 126 127
3 128 129 130
3 131 132 133
3 134 135 136
3 137 138 139
2 140 141
3 142 143 144
2 145 146
3 147 148 149
3 150 151 152
3 153 154 155
3 156 157 158
3 159 160 161
3 162 163 164
3 165 166 167
3 168 169 170
3 171 172 173
3 174 175 176
3 177 178 179
3 180 181 182
3 183 184 185
3 186 187 188
3 189 190 191
2 192 193
3 194 195 196
3 197 198 199
3 200 201 202
3 203 204 205
3 206 207 208
3 209 210 211
3 212 213 214
3 215 216 217
3 218 219 220
2 221 222
3 223 224 225
3 226 227 228
3 229 230 231
3 232 233 234
3 235 236 237
2 238 239
3 240 241 242
3 243 244 245
3 246 247 248
3 249 250 251
3 252 253 254
3 255 256 257
3 258 259 260
3 261 262 263
3 264 265 266
3 267 268 269
3 270 271 272
3 273 274 275
3 276 277 278
3 279 280 281
3 282 283 284
2 285 286
3 287 288 289
3 290 291 292
CELL_DATA 100
SCALARS Radiative_path_type float 1
LOOKUP_TABLE path_type
0.5
0.5
0.5
0.5
0.5
0.5
0.5
0.5
0.5
0.5
0.75
0.5
0.5
0.5
0.5
0.5
0.5
0.5
1.0
0.5
0.5
0.5
0.75
0.5
0.5
0.5
0.5
1.0
0.5
0.5
0.5
0.5
0.5
0.5
0.5
0.5
0.5
0.5
0.5
0.5
0.5
1.0
0.5
0.5
0.5
0.5
0.5
1.0
0.5
1.0
0.5
0.5
0.5
0.5
0.5
0.5
0.5
0.5
0.5
0.5
0.5
0.5
0.5
0.5
0.5
1.0
0.5
0.5
0.5
0.5
0.5
0.5
0.5
0.5
0.5
1.0
0.5
0.5
0.5
0.5
0.5
1.0
0.5
0.5
0.5
0.5
0.5
0.5
0.5
0.5
0.5
0.5
0.5
0.5
0.5
0.5
0.5
1.0
0.5
0.5
LOOKUP_TABLE path_type 5
1.0 0.0 0.0 1.0
0.0 1.0 0.0 1.0
0.0 0.0 1.0 1.0
0.0 1.0 1.0 1.0
1.0 1.0 0.0 1.0
