# vtk DataFile Version 2.0
Radiative paths
ASCII
DATASET POLYDATA
POINTS 300 float
-0.754024 -0.854931 -0.017745
0.090206 -0.010701 -0.017745
-0.004717 1.500000 -0.017745
-1.506752 -0.848283 0.014301
-0.662522 -0.004053 0.014301
-0.000989 1.500000 0.014301
-1.352779 -0.905768 0.050052
-0.508548 -0.061537 0.050052
-0.150702 1.077495 0.050052
-1.105675 -0.803885 0.010584
-0.261445 0.040345 0.010584
0.013700 1.500000 0.010584
-1.164506 -0.915292 -0.030514
-0.320276 -0.071062 -0.030514
-0.099117 1.102198 -0.030514
-0.182026 -0.831151 0.068240
0.662205 0.013079 0.068240
0.181519 1.105960 0.068240
-1.111786 -0.815457 -0.046112
-0.267556 0.028773 -0.046112
-0.046396 1.202033 -0.046112
-0.391564 -0.920007 -0.050742
0.452666 -0.075776 -0.050742
0.094820 1.063256 -0.050742
-1.315525 -0.844304 0.062987
-0.471295 -0.000074 0.062987
-0.113449 1.138959 0.062987
-1.534720 -0.889174 -0.049474
-0.690490 -0.044944 -0.049474
-0.209804 1.047938 -0.049474
-0.975040 -0.925209 -0.013679
-0.130809 -0.080979 -0.013679
-0.055939 1.110593 -0.013679
-0.362891 -0.803092 0.051150
0.481339 0.041138 0.051150
0.123493 1.180170 0.051150
-1.105749 -0.804026 -0.056023
-0.261519 0.040205 -0.056023
-0.040360 1.213464 -0.056023
-0.927829 -0.820638 0.031678
-0.083599 0.023593 0.031678
-0.008728 1.215165 0.031678
-0.176169 -0.799943 -0.051973
0.668062 0.044287 -0.051973
0.187376 1.137169 -0.051973
-1.283496 -0.791461 -0.025316
-0.439266 0.052769 -0.025316
-0.081420 1.191802 -0.025316
-0.555655 -0.825368 -0.035477
0.288575 0.018862 -0.035477
0.067416 1.192122 -0.035477
-0.385981 -0.897243 0.006923
0.458249 -0.053013 0.006923
0.100403 1.086020 0.006923
-1.535748 -0.890677 0.055092
-0.691518 -0.046447 0.055092
-0.210832 1.046435 0.055092
-1.318211 -0.848736 -0.018275
-0.473981 -0.004506 -0.018275
-0.001315 1.500000 -0.018275
-0.748075 -0.839189 -0.007238
0.096155 0.005041 -0.007238
0.002222 1.500000 -0.007238
-0.171222 -0.773587 -0.039201
0.673008 0.070643 -0.039201
0.192322 1.163525 -0.039201
-0.955213 -0.881293 -0.040085
-0.110983 -0.037063 -0.040085
-0.036112 1.154509 -0.040085
-0.734817 -0.804107 0.046941
0.109413 0.040123 0.046941
0.034543 1.231695 0.046941
-0.737166 -0.810322 -0.058785
0.107064 0.033908 -0.058785
0.032194 1.225480 -0.058785
-0.586193 -0.924251 -0.019040
0.258037 -0.080021 -0.019040
0.036877 1.093238 -0.019040
-1.282299 -0.789486 -0.019100
-0.438069 0.054744 -0.019100
0.015982 1.500000 -0.019100
-1.330651 -0.869260 -0.018049
-0.486421 -0.025030 -0.018049
-0.007307 1.500000 -0.018049
-1.289896 -0.802020 -0.035730
-0.445666 0.042210 -0.035730
-0.087820 1.181243 -0.035730
-0.365842 -0.815126 0.057123
0.478388 0.029104 0.057123
0.120542 1.168137 0.057123
-0.580812 -0.906827 -0.056716
0.263418 -0.062597 -0.056716
0.042259 1.110663 -0.056716
-0.903717 -0.767229 0.042970
-0.059486 0.077001 0.042970
0.015384 1.268573 0.042970
-0.200523 -0.929714 0.032461
0.643707 -0.085484 0.032461
0.163021 1.007398 0.032461
-1.282870 -0.790428 -0.052704
-0.438640 0.053802 -0.052704
-0.080794 1.192834 -0.052704
-0.352358 -0.760140 -0.028718
0.491873 0.084090 -0.028718
0.134026 1.223122 -0.028718
-1.111362 -0.814654 -0.039809
-0.267132 0.029576 -0.039809
-0.045972 1.202836 -0.039809
-0.916407 -0.795337 0.064453
-0.072176 0.048893 0.064453
0.002694 1.240465 0.064453
-1.532630 -0.886118 -0.043081
-0.688400 -0.041888 -0.043081
-0.207714 1.050993 -0.043081
-1.290179 -0.802487 -0.025236
-0.445949 0.041744 -0.025236
-0.088103 1.180776 -0.025236
-1.305475 -0.827723 -0.017726
-0.461245 0.016507 -0.017726
0.004819 1.500000 -0.017726
-1.273650 -0.775216 -0.041721
-0.429420 0.069014 -0.041721
-0.071574 1.208047 -0.041721
-0.356114 -0.775456 0.034474
0.488116 0.068774 0.034474
0.130270 1.207807 0.034474
-1.088506 -0.771373 -0.056506
-0.244276 0.072858 -0.056506
-0.023116 1.246117 -0.056506
-1.324996 -0.859930 0.022011
-0.480766 -0.015700 0.022011
-0.122920 1.123333 0.022011
-0.973402 -0.921583 0.025653
-0.129172 -0.077352 0.025653
-0.054302 1.114219 0.025653
-0.387757 -0.904482 0.060305
0.456473 -0.060252 0.060305
0.098627 1.078780 0.060305
-0.543320 -0.785429 -0.027207
0.300910 0.058801 -0.027207
0.079750 1.232061 -0.027207
-0.737830 -0.812080 -0.013290
0.106400 0.032151 -0.013290
0.014170 1.500000 -0.013290
-1.094061 -0.781893 -0.034381
-0.249831 0.062337 -0.034381
-0.028672 1.235597 -0.034381
-0.382357 -0.882464 -0.040954
0.461873 -0.038234 -0.040954
0.104027 1.100799 -0.040954
-1.292007 -0.805502 0.066979
-0.447777 0.038728 0.066979
-0.089930 1.177761 0.066979
-0.933649 -0.833530 0.014900
-0.089419 0.010700 0.014900
0.004159 1.500000 0.014900
-0.198410 -0.918455 0.010768
0.645820 -0.074224 0.010768
0.165134 1.018657 0.010768
-0.779142 -0.921396 0.038086
0.065088 -0.077165 0.038086
-0.009782 1.114407 0.038086
-1.118079 -0.827374 0.021004
-0.273849 0.016856 0.021004
-0.052689 1.190116 0.021004
-1.273999 -0.775791 -0.041907
-0.429768 0.068439 -0.041907
-0.071922 1.207472 -0.041907
-0.763163 -0.879112 -0.059566
0.081068 -0.034882 -0.059566
0.006197 1.156690 -0.059566
-0.357192 -0.779855 0.064470
0.487038 0.064375 0.064470
0.129192 1.203408 0.064470
-1.271251 -0.771259 -0.022794
-0.427021 0.072971 -0.022794
-0.069175 1.212004 -0.022794
-1.541449 -0.899013 -0.043481
-0.697219 -0.054782 -0.043481
-0.216533 1.038099 -0.043481
-0.539932 -0.774458 -0.032760
0.304298 0.069772 -0.032760
0.083139 1.243031 -0.032760
-1.481349 -0.811143 0.047454
-0.637119 0.033088 0.047454
-0.156433 1.125969 0.047454
-1.313925 -0.841664 0.010707
-0.469694 0.002567 0.010707
0.000749 1.500000 0.010707
-0.171870 -0.777036 0.057248
0.672361 0.067194 0.057248
0.191675 1.160076 0.057248
-0.746722 -0.835610 -0.057752
0.097508 0.008621 -0.057752
0.022637 1.200193 -0.057752
-1.161588 -0.909766 -0.012795
-0.317358 -0.065536 -0.012795
-0.096199 1.107723 -0.012795
-1.327790 -0.864539 0.008532
-0.483560 -0.020309 0.008532
-0.005929 1.500000 0.008532
-0.173088 -0.783528 -0.025227
0.671142 0.060702 -0.025227
0.190456 1.153584 -0.025227
-0.176876 -0.803711 -0.056408
0.667354 0.040519 -0.056408
0.186669 1.133401 -0.056408
-0.178159 -0.810549 0.002257
0.666071 0.033681 0.002257
0.185385 1.126563 0.002257
-1.453986 -0.771136 -0.049261
-0.609756 0.073094 -0.049261
-0.129070 1.165976 -0.049261
-1.138031 -0.865157 0.060533
-0.293801 -0.020927 0.060533
-0.072641 1.152333 0.060533
-0.908271 -0.777318 -0.005921
-0.064041 0.066912 -0.005921
0.010829 1.258484 -0.005921
-0.180599 -0.823549 0.004096
0.663631 0.020681 0.004096
0.012977 1.500000 0.004096
-1.085835 -0.766315 0.014462
-0.241605 0.077915 0.014462
-0.020446 1.251174 0.014462
-0.558459 -0.834446 -0.067594
0.285772 0.009784 -0.067594
0.064612 1.183043 -0.067594
-0.771844 -0.902084 -0.064791
0.072386 -0.057853 -0.064791
-0.002484 1.133718 -0.064791
-1.086114 -0.766843 0.038823
-0.241883 0.077388 0.038823
-0.020724 1.250647 0.038823
-1.113087 -0.817920 -0.015383
-0.268856 0.026310 -0.015383
0.008934 1.500000 -0.015383
-1.520291 -0.868077 -0.022943
-0.676060 -0.023847 -0.022943
-0.195375 1.069035 -0.022943
-0.582826 -0.913347 0.026551
0.261404 -0.069117 0.026551
0.040245 1.104143 0.026551
-0.372671 -0.842969 0.051078
0.471559 0.001262 0.051078
0.113713 1.140294 0.051078
-1.355358 -0.910023 -0.006134
-0.511128 -0.065793 -0.006134
-0.019208 1.500000 -0.006134
-0.752958 -0.852110 0.040745
0.091272 -0.007880 0.040745
0.016402 1.183692 0.040745
-0.188318 -0.864679 -0.042512
0.655912 -0.020449 -0.042512
0.175227 1.072433 -0.042512
-0.576075 -0.891489 -0.032521
0.268155 -0.047259 -0.032521
0.046996 1.126001 -0.032521
-0.174279 -0.789875 -0.050196
0.669951 0.054355 -0.050196
0.189265 1.147237 -0.050196
-1.272440 -0.773220 -0.014824
-0.428210 0.071010 -0.014824
-0.070364 1.210043 -0.014824
-0.181323 -0.827405 -0.024153
0.662908 0.016825 -0.024153
0.182222 1.109707 -0.024153
-0.731860 -0.796281 -0.032048
0.112371 0.047949 -0.032048
0.037500 1.239521 -0.032048
-1.303511 -0.824483 0.004425
-0.459281 0.019747 0.004425
0.005765 1.500000 0.004425
-0.373667 -0.847030 -0.005867
0.470563 -0.002800 -0.005867
-0.001566 1.500000 -0.005867
-0.780960 -0.926205 -0.004564
0.063271 -0.081975 -0.004564
-0.011600 1.109597 -0.004564
-0.185637 -0.850395 0.036290
0.658593 -0.006165 0.036290
0.177907 1.086717 0.036290
-0.738588 -0.814085 0.018854
0.105642 0.030145 0.018854
0.013286 1.500000 0.018854
-0.579929 -0.903966 0.039646
0.264302 -0.059736 0.039646
0.043142 1.113524 0.039646
-0.587604 -0.928818 0.030795
0.256626 -0.084588 0.030795
0.035467 1.088672 0.030795
-0.917175 -0.797039 -0.027041
-0.072945 0.047191 -0.027041
0.001926 1.238763 -0.027041
-1.358102 -0.914550 -0.045482
-0.513872 -0.070320 -0.045482
-0.156025 1.068713 -0.045482
-0.177341 -0.806190 0.052534
0.666889 0.038040 0.052534
0.186203 1.130922 0.052534
LINES 100 400
3 0 1 2
3 3 4 5
3 6 7 8
3 9 10 11
3 12 13 14
3 15 16 17
3 18 19 20
3 21 22 23
3 24 25 26
3 27 28 29
3 30 31 32
3 33 34 35
3 36 37 38
3 39 40 41
3 42 43 44
3 45 46 47
3 48 49 50
3 51 52 53
3 54 55 56
3 57 58 59
3 60 61 62
3 63 64 65
3 66 67 68
3 69 70 71
3 72 73 74
3 75 76 77
3 78 79 80
3 81 82 83
3 84 85 86
3 87 88 89
3 90 91 92
3 93 94 95
3 96 97 98
3 99 100 101
3 102 103 104
3 105 106 107
3 108 109 110
3 111 112 113
3 114 115 116
3 117 118 119
3 120 121 122
3 123 124 125
3 126 127 128
3 129 130 131
3 132 133 134
3 135 136 137
3 138 139 140
3 141 142 143
3 144 145 146
3 147 148 149
3 150 151 152
3 153 154 155
3 156 157 158
3 159 160 161
3 162 163 164
3 165 166 167
3 168 169 170
3 171 172 173
3 174 175 176
3 177 178 179
3 180 181 182
3 183 184 185
3 186 187 188
3 189 190 191
3 192 193 194
3 195 196 197
3 198 199 200
3 201 202 203
3 204 205 206
3 207 208 209
3 210 211 212
3 213 214 215
3 216 217 218
3 219 220 221
3 222 223 224
3 225 226 227
3 228 229 230
3 231 232 233
3 234 235 236
3 237 238 239
3 240 241 242
3 243 244 245
3 246 247 248
3 249 250 251
3 252 253 254
3 255 256 257
3 258 259 260
3 261 262 263
3 264 265 266
3 267 268 269
3 270 271 272
3 273 274 275
3 276 277 278
3 279 280 281
3 282 283 284
3 285 286 287
3 288 289 290
3 291 292 293
3 294 295 296
3 297 298 299
CELL_DATA 100
SCALARS Radiative_path_type float 1
LOOKUP_TABLE path_type
0.5
0.5
0.75
0.5
0.75
0.75
0.75
0.75
0.75
0.75
0.75
0.75
0.75
0.75
0.75
0.75
0.75
0.75
0.75
0.5
0.5
0.75
0.75
0.75
0.75
0.75
0.5
0.5
0.75
0.75
0.75
0.75
0.75
0.75
0.75
0.75
0.75
0.75
0.75
0.5
0.75
0.75
0.75
0.75
0.75
0.75
0.75
0.5
0.75
0.75
0.75
0.5
0.75
0.75
0.75
0.75
0.75
0.75
0.75
0.75
0.75
0.75
0.5
0.75
0.75
0.75
0.5
0.75
0.75
0.75
0.75
0.75
0.75
0.5
0.75
0.75
0.75
0.75
0.5
0.75
0.75
0.75
0.5
0.75
0.75
0.75
0.75
0.75
0.75
0.75
0.5
0.5
0.75
0.75
0.5
0.75
0.75
0.75
0.75
0.75
LOOKUP_TABLE path_type 5
1.0 0.0 0.0 1.0
0.0 1.0 0.0 1.0
0.0 0.0 1.0 1.0
0.0 1.0 1.0 1.0
1.0 1.0 0.0 1.0
