# vtk DataFile Version 2.0
Radiative paths
ASCII
DATASET POLYDATA
POINTS 279 float
0.907037 0.827533 -0.017745
0.083549 0.004044 -0.017745
-0.010447 1.500000 -0.017745
0.159685 0.826261 0.014301
-0.663803 0.002772 0.014301
-0.005272 1.500000 0.014301
0.290701 0.860787 0.050052
-0.532787 0.037298 0.050052
-0.183733 1.148347 0.050052
0.581084 0.802183 0.010584
-0.242405 -0.021305 0.010584
-0.026679 1.123129 0.010584
1.324016 0.816309 0.068152
0.500527 -0.007180 0.068152
0.151473 1.103868 0.068152
0.116198 0.856005 0.051379
-0.707291 0.032516 0.051379
-0.238415 1.098547 0.051379
0.775432 0.802634 -0.050371
-0.048057 -0.020855 -0.050371
0.024974 1.141442 -0.050371
0.709094 0.832583 -0.029733
-0.114395 0.009095 -0.029733
-0.041364 1.171391 -0.029733
1.558368 0.809389 0.005769
0.734880 -0.014100 0.005769
0.266004 1.051931 0.005769
1.572151 0.806802 -0.011643
0.748663 -0.016687 -0.011643
0.279787 1.049345 -0.011643
0.871592 0.840928 -0.061589
0.048103 0.017439 -0.061589
-0.024927 1.179736 -0.061589
1.374076 0.804031 0.032358
0.550588 -0.019457 0.032358
0.770687 0.804776 0.013558
-0.052802 -0.018713 0.013558
0.020229 1.143584 0.013558
0.510796 0.839300 -0.029175
-0.312692 0.015812 -0.029175
-0.096967 1.160246 -0.029175
0.770535 0.804845 0.054114
-0.052954 -0.018644 0.054114
0.020077 1.143653 0.054114
0.207001 0.793899 0.040512
-0.616487 -0.029590 0.040512
0.358846 0.819484 -0.013650
-0.464643 -0.004005 -0.013650
0.007865 1.500000 -0.013650
1.241726 0.836490 0.006923
0.418237 0.013001 0.006923
0.069183 1.124049 0.006923
0.117292 0.855257 0.055092
-0.706197 0.031768 0.055092
-0.237321 1.097799 0.055092
0.347733 0.826220 -0.018275
-0.475756 0.002731 -0.018275
-0.005364 1.500000 -0.018275
0.922780 0.821583 -0.007238
0.099291 -0.001905 -0.007238
0.004922 1.500000 -0.007238
1.553882 0.810231 -0.039201
0.730393 -0.013258 -0.039201
0.261517 1.052773 -0.039201
0.692175 0.840221 -0.040085
-0.131313 0.016733 -0.040085
-0.058282 1.179029 -0.040085
0.957862 0.808326 0.046941
0.134373 -0.015163 0.046941
0.061342 1.147134 0.046941
0.951647 0.810674 -0.058785
0.128158 -0.012814 -0.058785
0.055127 1.149482 -0.058785
1.026218 0.848202 -0.019040
0.202729 0.024713 -0.019040
-0.012997 1.169147 -0.019040
0.406983 0.790307 -0.019100
-0.416506 -0.033181 -0.019100
1.561672 0.808769 0.054742
0.738183 -0.014720 0.054742
0.269307 1.051311 0.054742
0.892464 0.833040 0.025561
0.068975 0.009552 0.025561
-0.004056 1.171848 0.025561
0.173968 0.816492 0.008037
-0.649520 -0.006997 0.008037
0.013307 1.500000 0.008037
0.201394 0.797734 0.006920
-0.622095 -0.025755 0.006920
0.210027 0.791829 0.049851
-0.613462 -0.031659 0.049851
1.195035 0.796065 0.024777
0.371546 -0.027423 0.024777
1.155433 0.808296 0.058608
0.331944 -0.015193 0.058608
0.116218 1.129241 0.058608
1.258522 0.832370 0.050576
0.435034 0.008882 0.050576
0.085979 1.119930 0.050576
0.794100 0.794206 0.036550
-0.029389 -0.029283 0.036550
0.118909 0.854150 0.031208
-0.704579 0.030662 0.031208
-0.235703 1.096693 0.031208
1.558899 0.809289 0.056177
0.735410 -0.014199 0.056177
0.266534 1.051832 0.056177
0.318533 0.843918 -0.061686
-0.504956 0.020430 -0.061686
-0.155902 1.131478 -0.061686
0.319869 0.843108 0.061903
-0.503620 0.019620 0.061903
-0.154566 1.130668 0.061903
1.083672 0.830458 0.027413
0.260183 0.006969 0.027413
0.044457 1.151404 0.027413
1.087890 0.829155 -0.011783
0.264401 0.005667 -0.011783
-0.017280 1.500000 -0.011783
0.378459 0.807596 0.002028
-0.445029 -0.015893 0.002028
-0.095975 1.095156 0.002028
0.315764 0.845596 -0.039185
-0.507725 0.022108 -0.039185
-0.158671 1.133156 -0.039185
1.134879 0.814643 -0.006994
0.311390 -0.008845 -0.006994
0.095665 1.135589 -0.006994
0.175521 0.815430 0.033401
-0.647968 -0.008058 0.033401
-0.179092 1.057973 0.033401
0.230714 0.777680 0.008760
-0.592774 -0.045809 0.008760
1.284091 0.826100 -0.049194
0.460602 0.002611 -0.049194
0.111548 1.113660 -0.049194
0.129214 0.847102 0.012935
-0.694274 0.023613 0.012935
-0.225398 1.089645 0.012935
0.481551 0.854744 -0.042995
-0.341937 0.031256 -0.042995
-0.126212 1.175690 -0.042995
1.080173 0.831539 -0.053160
0.256684 0.008050 -0.053160
0.040958 1.152484 -0.053160
0.759103 0.810006 -0.018740
-0.064386 -0.013483 -0.018740
0.008645 1.148814 -0.018740
1.308494 0.820115 -0.041196
0.485005 -0.003373 -0.041196
0.135951 1.107675 -0.041196
0.959239 0.807805 -0.000133
0.135751 -0.015684 -0.000133
0.062720 1.146613 -0.000133
1.409014 0.837419 0.010768
0.585526 0.013930 0.010768
0.116650 1.079961 0.010768
0.840573 0.852651 0.038086
0.017085 0.029162 0.038086
-0.055946 1.191459 0.038086
0.557595 0.814587 0.021004
-0.265894 -0.008901 0.021004
-0.050168 1.135533 0.021004
0.420678 0.782007 -0.041907
-0.402811 -0.041482 -0.041907
0.882857 0.836671 -0.059566
0.059368 0.013182 -0.059566
-0.013663 1.175479 -0.059566
1.359114 0.807701 0.064470
0.535625 -0.015788 0.064470
0.425210 0.779260 -0.022794
-0.398279 -0.044229 -0.022794
0.108956 0.860958 -0.043481
-0.714532 0.037469 -0.043481
-0.245656 1.103500 -0.043481
1.176010 0.801941 -0.032760
0.352522 -0.021548 -0.032760
0.196826 0.800858 0.047454
-0.626662 -0.022631 0.047454
-0.157786 1.043400 0.047454
0.354805 0.821933 0.010707
-0.468683 -0.001556 0.010707
0.003055 1.500000 0.010707
1.550433 0.810878 0.057248
0.726944 -0.012611 0.057248
0.258068 1.053421 0.057248
0.926359 0.820231 -0.057752
0.102871 -0.003258 -0.057752
0.029840 1.159039 -0.057752
0.475203 0.858097 -0.012795
-0.348286 0.034608 -0.012795
-0.132560 1.179042 -0.012795
0.331929 0.835798 0.008532
-0.491559 0.012310 0.008532
-0.142505 1.123358 0.008532
0.202490 0.796984 0.034930
-0.620998 -0.026505 0.034930
0.717138 0.828952 -0.059201
-0.106350 0.005463 -0.059201
-0.033319 1.167760 -0.059201
1.219002 0.842063 0.047003
0.395513 0.018574 0.047003
0.046459 1.129622 0.047003
0.776574 0.802118 -0.024820
-0.046915 -0.021370 -0.024820
1.529479 0.814811 0.032041
0.705990 -0.008678 0.032041
0.237114 1.057353 0.032041
1.502906 0.819798 -0.035460
0.679417 -0.003691 -0.035460
0.210541 1.062340 -0.035460
0.948781 0.811757 0.024724
0.125292 -0.011731 0.024724
0.052261 1.150565 0.024724
0.368789 0.813457 -0.052505
-0.454700 -0.010031 -0.052505
-0.105645 1.101017 -0.052505
1.300319 0.822120 -0.005264
0.476830 -0.001369 -0.005264
0.005150 1.500000 -0.005264
1.418979 0.835548 0.066188
0.595490 0.012060 0.066188
0.126614 1.078091 0.066188
0.502880 0.843481 0.063478
-0.320608 0.019992 0.063478
-0.104883 1.164426 0.063478
1.234198 0.838336 -0.033438
0.410709 0.014847 -0.033438
0.061655 1.125896 -0.033438
0.593014 0.795883 0.005677
-0.230474 -0.027606 0.005677
0.843288 0.851625 0.026485
0.019799 0.028136 0.026485
-0.053232 1.190433 0.026485
1.163977 0.805657 -0.041508
0.340488 -0.017832 -0.041508
0.791264 0.795486 -0.036748
-0.032225 -0.028002 -0.036748
1.513635 0.817784 -0.016665
0.690147 -0.005705 -0.016665
0.221271 1.060326 -0.016665
1.189696 0.797714 0.010825
0.366208 -0.025775 0.010825
0.909859 0.826466 0.040745
0.086370 0.002978 0.040745
0.013339 1.165274 0.040745
1.462790 0.827326 -0.042512
0.639301 0.003838 -0.042512
0.170425 1.069869 -0.042512
1.058980 0.838084 -0.032521
0.235491 0.014595 -0.032521
0.019766 1.159029 -0.032521
1.537594 0.813288 -0.050196
0.714105 -0.010201 -0.050196
0.245229 1.055830 -0.050196
0.423249 0.780449 -0.014824
-0.400240 -0.043040 -0.014824
1.500064 0.820331 -0.024153
0.676575 -0.003158 -0.024153
0.207699 1.062873 -0.024153
0.965688 0.805368 -0.032048
0.142199 -0.018121 -0.032048
0.069168 1.144176 -0.032048
0.371985 0.811520 0.004425
-0.451503 -0.011969 0.004425
-0.102449 1.099079 0.004425
1.133082 0.815198 -0.001419
0.309594 -0.008290 -0.001419
0.093868 1.136144 -0.001419
1.000374 0.792259 0.017661
0.176886 -0.031229 0.017661
0.172559 0.817456 -0.023298
-0.650930 -0.006032 -0.023298
-0.182054 1.059999 -0.023298
1.304152 0.821180 -0.014142
0.480663 -0.002308 -0.014142
0.008688 1.500000 -0.014142
0.406972 0.790314 -0.006139
-0.416517 -0.033174 -0.006139
LINES 100 379
3 0 1 2
3 3 4 5
3 6 7 8
3 9 10 11
3 12 13 14
3 15 16 17
3 18 19 20
3 21 22 23
3 24 25 26
3 27 28 29
3 30 31 32
2 33 34
3 35 36 37
3 38 39 40
3 41 42 43
2 44 45
3 46 47 48
3 49 50 51
3 52 53 54
3 55 56 57
3 58 59 60
3 61 62 63
3 64 65 66
3 67 68 69
3 70 71 72
3 73 74 75
2 76 77
3 78 79 80
3 81 82 83
3 84 85 86
2 87 88
2 89 90
2 91 92
3 93 94 95
3 96 97 98
2 99 100
3 101 102 103
3 104 105 106
3 107 108 109
3 110 111 112
3 113 114 115
3 116 117 118
3 119 120 121
3 122 123 124
3 125 126 127
3 128 129 130
2 131 132
3 133 134 135
3 136 137 138
3 139 140 141
3 142 143 144
3 145 146 147
3 148 149 150
3 151 152 153
3 154 155 156
3 157 158 159
3 160 161 162
2 163 164
3 165 166 167
2 168 169
2 170 171
3 172 173 174
2 175 176
3 177 178 179
3 180 181 182
3 183 184 185
3 186 187 188
3 189 190 191
3 192 193 194
2 195 196
3 197 198 199
3 200 201 202
2 203 204
3 205 206 207
3 208 209 210
3 211 212 213
3 214 215 216
3 217 218 219
3 220 221 222
3 223 224 225
3 226 227 228
2 229 230
3 231 232 233
2 234 235
2 236 237
3 238 239 240
2 241 242
3 243 244 245
3 246 247 248
3 249 250 251
3 252 253 254
2 255 256
3 257 258 259
3 260 261 262
3 263 264 265
3 266 267 268
2 269 270
3 271 272 273
3 274 275 276
2 277 278
CELL_DATA 100
SCALARS Radiative_path_type float 1
LOOKUP_TABLE path_type
0.5
0.5
0.75
0.75
0.75
0.75
0.75
0.75
0.75
0.75
0.75
1.0
0.75
0.75
0.75
1.0
0.5
0.75
0.75
0.5
0.5
0.75
0.75
0.75
0.75
0.75
1.0
0.75
0.75
0.5
1.0
1.0
1.0
0.75
0.75
1.0
0.75
0.75
0.75
0.75
0.75
0.5
0.75
0.75
0.75
0.75
1.0
0.75
0.75
0.75
0.75
0.75
0.75
0.75
0.75
0.75
0.75
1.0
0.75
1.0
1.0
0.75
1.0
0.75
0.5
0.75
0.75
0.75
0.75
1.0
0.75
0.75
1.0
0.75
0.75
0.75
0.75
0.5
0.75
0.75
0.75
1.0
0.75
1.0
1.0
0.75
1.0
0.75
0.75
0.75
0.75
1.0
0.75
0.75
0.75
0.75
1.0
0.75
0.5
1.0
LOOKUP_TABLE path_type 5
1.0 0.0 0.0 1.0
0.0 1.0 0.0 1.0
0.0 0.0 1.0 1.0
0.0 1.0 1.0 1.0
1.0 1.0 0.0 1.0
