# vtk DataFile Version 2.0
Radiative paths
ASCII
DATASET POLYDATA
POINTS 288 float
-0.739665 0.818781 -0.017745
0.083824 -0.004707 -0.017745
-0.010722 1.500000 -0.017745
-1.488065 0.822583 0.014301
-0.664576 -0.000906 0.014301
-0.004428 1.500000 0.014301
-1.364626 0.806349 0.050052
-0.541138 -0.017140 0.050052
-1.062645 0.836952 0.010584
-0.239156 0.013463 0.010584
-0.023431 1.157897 0.010584
-0.326459 0.839114 0.068152
0.497029 0.015625 0.068152
0.147975 1.126673 0.068152
-1.539848 0.812865 0.051379
-0.716359 -0.010624 0.051379
-0.247483 1.055407 0.051379
-0.870328 0.841406 -0.050371
-0.046840 0.017917 -0.050371
0.026191 1.180214 -0.050371
-0.938414 0.815675 -0.029733
-0.114926 -0.007814 -0.029733
-0.041895 1.154483 -0.029733
-0.100644 0.866643 0.005769
0.722845 0.043155 0.005769
0.253969 1.109186 0.005769
-0.089069 0.874560 -0.011643
0.734420 0.051072 -0.011643
0.265544 1.117103 -0.011643
-0.774201 0.803190 -0.061589
0.049288 -0.020299 -0.061589
-0.023743 1.141998 -0.061589
-0.282380 0.865831 0.032358
0.541108 0.042342 0.032358
0.192054 1.153390 0.032358
-0.875198 0.839565 0.013558
-0.051710 0.016077 0.013558
0.021321 1.178373 0.013558
-1.138592 0.813497 -0.029175
-0.315103 -0.009992 -0.029175
-0.099377 1.134442 -0.029175
-0.875355 0.839506 0.054114
-0.051866 0.016018 0.054114
0.021165 1.178314 0.054114
-1.431724 0.833157 0.040512
-0.608235 0.009668 0.040512
-0.139359 1.075699 0.040512
-1.287235 0.825329 -0.013650
-0.463747 0.001840 -0.013650
0.006925 1.500000 -0.013650
-0.398917 0.795196 0.006923
0.424571 -0.028292 0.006923
-1.538545 0.813109 0.055092
-0.715056 -0.010379 0.055092
-0.246180 1.055652 0.055092
-1.299856 0.822234 -0.018275
-0.476367 -0.001255 -0.018275
-0.004723 1.500000 -0.018275
-0.724327 0.825706 -0.007238
0.099162 0.002218 -0.007238
0.005051 1.500000 -0.007238
-0.104411 0.864066 -0.039201
0.719077 0.040578 -0.039201
0.250201 1.106609 -0.039201
-0.955778 0.809113 -0.040085
-0.132290 -0.014376 -0.040085
-0.059259 1.147921 -0.040085
-0.690146 0.841138 0.046941
0.133343 0.017649 0.046941
0.060312 1.179946 0.046941
-0.696201 0.838404 -0.058785
0.127288 0.014916 -0.058785
0.054257 1.177212 -0.058785
-0.614797 0.784380 -0.019040
0.208692 -0.039108 -0.019040
-1.232566 0.838736 -0.019100
-0.409077 0.015248 -0.019100
-0.060023 1.126296 -0.019100
-0.097869 0.868541 0.054742
0.725619 0.045052 0.054742
0.256743 1.111083 0.054742
-0.753865 0.812371 0.025561
0.069624 -0.011118 0.025561
-0.003407 1.151179 0.025561
-1.471058 0.825775 0.008037
-0.647569 0.002286 0.008037
0.011175 1.500000 0.008037
-1.438401 0.831903 0.006920
-0.614913 0.008415 0.006920
-0.146036 1.074446 0.006920
-1.428121 0.833833 0.049851
-0.604633 0.010344 0.049851
-0.135757 1.076375 0.049851
-0.458559 0.866886 0.024777
0.364929 0.043397 0.024777
0.149204 1.187831 0.024777
-0.495210 0.847531 0.058608
0.328278 0.024043 0.058608
0.112553 1.168477 0.058608
-0.384128 0.804160 0.050576
0.439361 -0.019328 0.050576
0.090307 1.091720 0.050576
-0.851169 0.848646 0.036550
-0.027680 0.025158 0.036550
0.045351 1.187454 0.036550
-1.536619 0.813471 0.031208
-0.713130 -0.010018 0.031208
-0.244254 1.056013 0.031208
-0.100198 0.866948 0.056177
0.723290 0.043459 0.056177
0.254414 1.109490 0.056177
-1.333018 0.814101 -0.061686
-0.509530 -0.009388 -0.061686
-0.160475 1.101660 -0.061686
-1.331501 0.814473 0.061903
-0.508012 -0.009016 0.061903
-0.158958 1.102032 0.061903
-0.561624 0.812460 0.027413
0.261865 -0.011029 0.027413
0.046139 1.133405 0.027413
-0.557720 0.814521 -0.011783
0.265769 -0.008967 -0.011783
-0.018672 1.500000 -0.011783
-1.264960 0.830792 0.002028
-0.441471 0.007303 0.002028
-0.092417 1.118351 0.002028
-1.336163 0.813330 -0.039185
-0.512674 -0.010159 -0.039185
-0.163620 1.100889 -0.039185
-0.514232 0.837486 -0.006994
0.309256 0.013997 -0.006994
0.093530 1.158431 -0.006994
-1.469209 0.826122 0.033401
-0.645721 0.002633 0.033401
-0.176845 1.068664 0.033401
-1.403488 0.838456 0.008760
-0.579999 0.014967 0.008760
-0.111123 1.080998 0.008760
-0.361614 0.817806 -0.049194
0.461874 -0.005683 -0.049194
0.112820 1.105366 -0.049194
-1.524348 0.815773 0.012935
-0.700860 -0.007715 0.012935
-0.231984 1.058316 0.012935
-1.170191 0.803738 -0.042995
-0.346703 -0.019751 -0.042995
-0.564862 0.810750 -0.053160
0.258626 -0.012739 -0.053160
0.042901 1.131695 -0.053160
-0.887087 0.835072 -0.018740
-0.063599 0.011584 -0.018740
0.009432 1.173880 -0.018740
-0.340127 0.830830 -0.041196
0.483362 0.007341 -0.041196
0.134307 1.118389 -0.041196
-0.688803 0.841744 -0.000133
0.134686 0.018255 -0.000133
0.061655 1.180552 -0.000133
-0.226073 0.780854 0.010768
0.597415 -0.042635 0.010768
-0.804423 0.789545 0.038086
0.019065 -0.033944 0.038086
-1.088025 0.829114 0.021004
-0.264537 0.005625 0.021004
-0.048811 1.150059 0.021004
-1.217013 0.842550 -0.041907
-0.393524 0.019062 -0.041907
-0.044470 1.130110 -0.041907
-0.763225 0.808145 -0.059566
0.060263 -0.015344 -0.059566
-0.012768 1.146953 -0.059566
-0.295555 0.857845 0.064470
0.527934 0.034357 0.064470
0.178880 1.145405 0.064470
-1.211866 0.843813 -0.022794
-0.388377 0.020324 -0.022794
-0.039323 1.131372 -0.022794
-1.548470 0.811246 -0.043481
-0.724982 -0.012242 -0.043481
-0.256106 1.053789 -0.043481
-0.476166 0.857588 -0.032760
0.347323 0.034099 -0.032760
0.131597 1.178534 -0.032760
-1.443840 0.830883 0.047454
-0.620351 0.007394 0.047454
-0.151475 1.073425 0.047454
-1.291824 0.824203 0.010707
-0.468335 0.000715 0.010707
0.002690 1.500000 0.010707
-0.107308 0.862085 0.057248
0.716180 0.038596 0.057248
0.247304 1.104627 0.057248
-0.720839 0.827281 -0.057752
0.102649 0.003792 -0.057752
0.029618 1.166089 -0.057752
-1.177051 0.801619 -0.012795
-0.353563 -0.021869 -0.012795
-1.317804 0.817832 0.008532
-0.494315 -0.005657 0.008532
-0.145261 1.105392 0.008532
-1.437095 0.832148 0.034930
-0.613607 0.008660 0.034930
-0.144731 1.074691 0.034930
-0.930158 0.818795 -0.059201
-0.106669 -0.004693 -0.059201
-0.033638 1.157603 -0.059201
-0.418926 0.783069 0.047003
0.404562 -0.040420 0.047003
-0.869156 0.841849 -0.024820
-0.045668 0.018360 -0.024820
0.027363 1.180657 -0.024820
-0.124905 0.850049 0.032041
0.698583 0.026561 0.032041
0.229707 1.092592 0.032041
-0.147222 0.834785 -0.035460
0.676266 0.011297 -0.035460
0.207390 1.077328 -0.035460
-0.698993 0.837144 0.024724
0.124495 0.013655 0.024724
0.051464 1.175952 0.024724
-1.275943 0.828098 -0.052505
-0.452454 0.004610 -0.052505
-0.103400 1.115658 -0.052505
-0.347325 0.826467 -0.005264
0.476163 0.002978 -0.005264
0.005849 1.500000 -0.005264
-0.217705 0.786578 0.066188
0.605784 -0.036911 0.066188
-1.147145 0.810855 0.063478
-0.323657 -0.012633 0.063478
-0.107931 1.131801 0.063478
-0.405546 0.791178 -0.033438
0.417942 -0.032310 -0.033438
-1.049754 0.840933 0.005677
-0.226265 0.017444 0.005677
-0.010540 1.161878 0.005677
-0.801779 0.790739 0.026485
0.021710 -0.032749 0.026485
-0.487303 0.851707 -0.041508
0.336186 0.028218 -0.041508
0.120460 1.172652 -0.041508
-0.854080 0.847546 -0.036748
-0.030591 0.024058 -0.036748
0.042440 1.186354 -0.036748
-0.138211 0.840949 -0.016665
0.685278 0.017460 -0.016665
0.216402 1.083491 -0.016665
-0.463500 0.864277 0.010825
0.359989 0.040788 0.010825
0.144263 1.185222 0.010825
-0.736916 0.820023 0.040745
0.086573 -0.003466 0.040745
0.013542 1.158831 0.040745
-0.180912 0.811743 -0.042512
0.642577 -0.011746 -0.042512
0.173701 1.054285 -0.042512
-0.584476 0.800392 -0.032521
0.239013 -0.023097 -0.032521
-0.118091 0.854710 -0.050196
0.705398 0.031222 -0.050196
0.236522 1.097253 -0.050196
-1.214093 0.843267 -0.014824
-0.390604 0.019778 -0.014824
-0.041550 1.130826 -0.014824
-0.149609 0.833153 -0.024153
0.673880 0.009664 -0.024153
0.205004 1.075695 -0.024153
-0.682520 0.844581 -0.032048
0.140968 0.021092 -0.032048
0.067937 1.183389 -0.032048
-1.272312 0.828989 0.004425
-0.448824 0.005500 0.004425
-0.099769 1.116548 0.004425
-0.515895 0.836608 -0.001419
0.307593 0.013119 -0.001419
0.091868 1.157553 -0.001419
-0.648724 0.859839 0.017661
0.174765 0.036350 0.017661
0.101734 1.198647 0.017661
-1.472736 0.825460 -0.023298
-0.649248 0.001971 -0.023298
-0.180372 1.068002 -0.023298
-0.343950 0.828512 -0.014142
0.479538 0.005024 -0.014142
0.009867 1.500000 -0.014142
-1.232579 0.838733 -0.006139
-0.409090 0.015244 -0.006139
-0.060036 1.126293 -0.006139
LINES 100 388
3 0 1 2
3 3 4 5
2 6 7
3 8 9 10
3 11 12 13
3 14 15 16
3 17 18 19
3 20 21 22
3 23 24 25
3 26 27 28
3 29 30 31
3 32 33 34
3 35 36 37
3 38 39 40
3 41 42 43
3 44 45 46
3 47 48 49
2 50 51
3 52 53 54
3 55 56 57
3 58 59 60
3 61 62 63
3 64 65 66
3 67 68 69
3 70 71 72
2 73 74
3 75 76 77
3 78 79 80
3 81 82 83
3 84 85 86
3 87 88 89
3 90 91 92
3 93 94 95
3 96 97 98
3 99 100 101
3 102 103 104
3 105 106 107
3 108 109 110
3 111 112 113
3 114 115 116
3 117 118 119
3 120 121 122
3 123 124 125
3 126 127 128
3 129 130 131
3 132 133 134
3 135 136 137
3 138 139 140
3 141 142 143
2 144 145
3 146 147 148
3 149 150 151
3 152 153 154
3 155 156 157
2 158 159
2 160 161
3 162 163 164
3 165 166 167
3 168 169 170
3 171 172 173
3 174 175 176
3 177 178 179
3 180 181 182
3 183 184 185
3 186 187 188
3 189 190 191
3 192 193 194
2 195 196
3 197 198 199
3 200 201 202
3 203 204 205
2 206 207
3 208 209 210
3 211 212 213
3 214 215 216
3 217 218 219
3 220 221 222
3 223 224 225
2 226 227
3 228 229 230
2 231 232
3 233 234 235
2 236 237
3 238 239 240
3 241 242 243
3 244 245 246
3 247 248 249
3 250 251 252
3 253 254 255
2 256 257
3 258 259 260
3 261 262 263
3 264 265 266
3 267 268 269
3 270 271 272
3 273 274 275
3 276 277 278
3 279 280 281
3 282 283 284
3 285 286 287
CELL_DATA 100
SCALARS Radiative_path_type float 1
LOOKUP_TABLE path_type
0.5
0.5
1.0
0.75
0.75
0.75
0.75
0.75
0.75
0.75
0.75
0.75
0.75
0.75
0.75
0.75
0.5
1.0
0.75
0.5
0.5
0.75
0.75
0.75
0.75
1.0
0.75
0.75
0.75
0.5
0.75
0.75
0.75
0.75
0.75
0.75
0.75
0.75
0.75
0.75
0.75
0.5
0.75
0.75
0.75
0.75
0.75
0.75
0.75
1.0
0.75
0.75
0.75
0.75
1.0
1.0
0.75
0.75
0.75
0.75
0.75
0.75
0.75
0.75
0.5
0.75
0.75
1.0
0.75
0.75
0.75
1.0
0.75
0.75
0.75
0.75
0.75
0.5
1.0
0.75
1.0
0.75
1.0
0.75
0.75
0.75
0.75
0.75
0.75
1.0
0.75
0.75
0.75
0.75
0.75
0.75
0.75
0.75
0.5
0.75
LOOKUP_TABLE path_type 5
1.0 0.0 0.0 1.0
0.0 1.0 0.0 1.0
0.0 0.0 1.0 1.0
0.0 1.0 1.0 1.0
1.0 1.0 0.0 1.0
