# vtk DataFile Version 2.0
Radiative paths
ASCII
DATASET POLYDATA
POINTS 285 float
1.242528 0.832334 0.328868
0.418816 0.008622 0.328868
-0.013584 1.500000 0.041629
1.134174 0.817573 -0.122818
0.310462 -0.006139 -0.122818
0.016363 1.500000 0.014844
1.373803 0.834607 -0.327305
0.550091 0.010895 -0.327305
-0.022619 1.500000 -0.050232
1.541983 0.823706 -0.056954
0.718271 -0.000006 -0.056954
-0.000632 1.500000 -0.061854
0.400392 0.823617 0.080740
-0.423320 -0.000095 0.080740
-0.006194 1.500000 -0.066169
1.543717 0.821895 0.117210
0.720005 -0.001817 0.117210
0.000234 1.500000 -0.029868
1.429531 0.813605 -0.397958
0.605819 -0.010107 -0.397958
0.025031 1.500000 0.025980
0.109151 0.833256 0.064818
-0.714561 0.009545 0.064818
-0.017922 1.500000 0.059950
0.276384 0.816952 0.161465
-0.547328 -0.006760 0.161465
0.014292 1.500000 0.013903
0.292580 0.808635 0.199135
-0.531132 -0.015077 0.199135
0.033587 1.500000 0.050759
1.190368 0.837665 -0.242205
0.366656 0.013953 -0.242205
-0.064199 1.500000 0.034299
1.218951 0.833948 0.026923
0.395240 0.010236 0.026923
-0.036693 1.500000 0.022056
1.511343 0.835100 0.343687
0.687631 0.011388 0.343687
-0.025811 1.500000 0.056980
0.439339 0.807679 -0.195832
-0.384373 -0.016033 -0.195832
1.428678 0.816821 0.281703
0.604966 -0.006891 0.281703
0.025416 1.500000 -0.008525
1.219756 0.830162 -0.396184
0.396044 0.006450 -0.396184
-0.036986 1.500000 0.023105
1.609747 0.812946 0.161504
0.786035 -0.010766 0.161504
0.061975 1.500000 0.013549
0.685785 0.828148 -0.299120
-0.137927 0.004436 -0.299120
-0.005220 1.500000 -0.020846
1.379696 0.817693 -0.353170
0.555984 -0.006019 -0.353170
0.548521 0.013384 -0.347722
-0.264519 -0.815148 -0.250238
0.156826 0.795087 -0.392134
-0.666886 -0.028625 -0.392134
1.440589 0.814976 0.143385
0.616877 -0.008736 0.143385
0.036617 1.500000 -0.004370
0.969704 0.824616 0.131979
0.145992 0.000904 0.131979
-0.004817 1.500000 -0.014832
1.060008 0.832813 -0.366440
0.236296 0.009101 -0.366440
-0.054827 1.500000 0.052105
0.645006 0.841157 0.252777
-0.178706 0.017445 0.252777
-0.047154 1.500000 -0.032763
0.837544 0.820892 0.133130
0.013832 -0.002820 0.133130
0.004915 1.500000 -0.014046
0.513960 0.843348 -0.163826
-0.309752 0.019636 -0.163826
-0.038253 1.500000 -0.028521
0.882487 0.803112 -0.054930
0.058775 -0.020600 -0.054930
0.689012 0.831294 0.349982
-0.134700 0.007583 0.349982
-0.002273 1.500000 0.062543
1.584440 0.816365 -0.279218
0.760728 -0.007347 -0.279218
0.038307 1.500000 0.001249
0.253031 0.829082 -0.097154
-0.570681 0.005370 -0.097154
-0.013583 1.500000 0.039455
0.358954 0.854146 -0.302421
-0.464758 0.030434 -0.302421
-0.056121 1.500000 -0.028984
0.510173 0.845030 -0.288540
-0.313539 0.021318 -0.288540
-0.042349 1.500000 -0.013407
0.435661 0.807632 0.297621
-0.388051 -0.016080 0.297621
0.033521 1.500000 0.005624
1.387600 0.826418 0.287747
0.563888 0.002706 0.287747
-0.011971 1.500000 -0.000632
0.409477 0.825681 -0.313336
-0.414235 0.001969 -0.313336
0.002318 1.500000 -0.034603
0.311462 0.792538 0.128180
-0.512250 -0.031174 0.128180
0.794898 0.840313 -0.287915
-0.028814 0.016601 -0.287915
-0.037615 1.500000 -0.011904
1.142880 0.812197 0.258643
0.319168 -0.011515 0.258643
0.024020 1.500000 -0.032475
1.532133 0.821832 0.406988
0.708421 -0.001880 0.406988
-0.011380 1.500000 -0.024452
1.076530 0.835944 0.003120
0.252818 0.012232 0.003120
-0.037693 1.500000 -0.001740
0.210291 0.859672 -0.287961
-0.613421 0.035960 -0.287961
-0.067725 1.500000 -0.015552
1.246108 0.828255 0.170193
0.422396 0.004543 0.170193
-0.011187 1.500000 0.023738
1.509851 0.826564 -0.251012
0.686139 0.002852 -0.251012
-0.031394 1.500000 0.027557
0.929776 0.846501 0.347809
0.106064 0.022789 0.347809
-0.042543 1.500000 0.063299
0.933146 0.841610 -0.194548
0.109434 0.017898 -0.194548
-0.039666 1.500000 -0.059084
0.689291 0.826134 -0.295761
-0.134421 0.002422 -0.295761
-0.001536 1.500000 -0.017112
0.263995 0.823214 -0.270601
-0.559717 -0.000498 -0.270601
-0.000431 1.500000 0.008592
1.231516 0.820066 -0.352594
0.407804 -0.003646 -0.352594
0.402160 0.015820 -0.347129
-0.411031 -0.812250 -0.247011
1.202074 0.830673 0.380386
0.378362 0.006961 0.380386
-0.054520 1.500000 -0.048514
1.562057 0.814178 -0.220128
0.738345 -0.009534 -0.220128
0.014876 1.500000 0.060746
1.224004 0.831566 0.422038
0.400292 0.007854 0.422038
-0.032331 1.500000 -0.006606
1.121448 0.825477 0.318289
0.297736 0.001765 0.318289
0.005181 1.500000 0.029729
0.452479 0.795279 -0.264699
-0.371233 -0.028433 -0.264699
0.721132 0.809328 -0.062694
-0.102580 -0.014384 -0.062694
0.031797 1.500000 -0.067641
1.365861 0.832646 0.438033
0.542149 0.008934 0.438033
-0.031315 1.500000 0.009700
0.661376 0.837721 0.152569
-0.162336 0.014010 0.152569
-0.030479 1.500000 0.007041
1.058049 0.842785 -0.424651
0.234337 0.019073 -0.424651
-0.054838 1.500000 -0.008906
0.999749 0.820302 0.339699
0.176037 -0.003410 0.339699
0.024794 1.500000 0.050142
0.450978 0.797219 -0.126286
-0.372734 -0.026493 -0.126286
0.301922 0.799768 0.019977
-0.521790 -0.023944 0.019977
1.259500 0.816633 0.388905
0.435788 -0.007079 0.388905
-0.001164 1.500000 -0.044029
0.348928 0.856228 -0.114488
-0.474784 0.032516 -0.114488
-0.066726 1.500000 0.019640
0.726799 0.808116 -0.292439
-0.096913 -0.015596 -0.292439
0.079991 0.853992 0.291913
-0.743721 0.030280 0.291913
-0.056774 1.500000 0.008845
1.018406 0.807810 -0.132681
0.194694 -0.015902 -0.132681
0.880337 0.804107 0.003481
0.056625 -0.019605 0.003481
0.278686 0.812945 -0.104100
-0.545026 -0.010767 -0.104100
0.018087 1.500000 0.033984
1.095034 0.830418 0.067302
0.271322 0.006706 0.067302
-0.020269 1.500000 0.062424
1.455487 0.813810 0.307649
0.631775 -0.009902 0.307649
1.570394 0.814300 -0.235456
0.746682 -0.009412 -0.235456
0.023272 1.500000 0.045395
1.234434 0.833370 -0.202046
0.410722 0.009658 -0.202046
-0.021378 1.500000 -0.065829
1.319986 0.803306 -0.396300
0.496274 -0.020406 -0.396300
1.582791 0.816803 -0.018634
0.759079 -0.006909 -0.018634
0.036868 1.500000 -0.023556
0.891357 0.801074 0.304549
0.067645 -0.022638 0.304549
0.172486 0.788825 0.042407
-0.651226 -0.034887 0.042407
0.359923 0.851042 0.047332
-0.463789 0.027330 0.047332
-0.054289 1.500000 0.042521
1.216428 0.831941 -0.086384
0.392716 0.008229 -0.086384
-0.039799 1.500000 0.049964
1.343669 0.837715 -0.294603
0.519957 0.014003 -0.294603
-0.051557 1.500000 -0.018108
1.494108 0.834016 0.182441
0.670396 0.010304 0.182441
-0.043565 1.500000 0.036550
0.429224 0.807846 -0.405255
-0.394488 -0.015866 -0.405255
0.027024 1.500000 0.020299
0.346533 0.859401 0.157136
-0.477179 0.035689 0.157136
-0.070003 1.500000 0.013731
1.474742 0.835282 -0.134941
0.651030 0.011570 -0.134941
-0.062324 1.500000 0.001101
0.396480 0.834985 -0.329118
-0.427232 0.011273 -0.329118
-0.013267 1.500000 -0.052115
0.215165 0.855575 0.055073
-0.608547 0.031863 0.055073
-0.061323 1.500000 0.050277
0.446989 0.807109 0.475207
-0.376723 -0.016603 0.475207
0.989448 0.821765 0.205745
0.165736 -0.001947 0.205745
0.014640 1.500000 0.058655
0.068863 0.861270 -0.056629
-0.754848 0.037558 -0.056629
-0.071303 1.500000 -0.061407
0.922592 0.837390 -0.387687
0.098880 0.013678 -0.387687
-0.050644 1.500000 0.029573
0.629663 0.845831 -0.378671
-0.194049 0.022119 -0.378671
-0.062911 1.500000 0.036220
0.555196 0.820649 -0.423846
-0.268516 -0.003063 -0.423846
0.007146 1.500000 -0.001886
0.801294 0.833131 -0.072048
-0.022418 0.009419 -0.072048
-0.031262 1.500000 0.064191
1.181781 0.802703 -0.117498
0.358069 -0.021009 -0.117498
0.110961 0.825690 0.231099
-0.712751 0.001978 0.231099
-0.012576 1.500000 -0.057420
0.128036 0.818144 -0.102690
-0.695676 -0.005568 -0.102690
0.008027 1.500000 0.034919
0.161459 0.798335 0.306827
-0.662253 -0.025377 0.306827
0.922871 0.844068 -0.171727
0.099159 0.020356 -0.171727
-0.049693 1.500000 -0.036487
0.363327 0.846311 -0.252979
-0.460385 0.022599 -0.252979
-0.049569 1.500000 0.021916
0.937198 0.833345 0.081139
0.113486 0.009633 0.081139
-0.036445 1.500000 -0.064818
0.543005 0.826138 -0.274112
-0.280707 0.002426 -0.274112
-0.006052 1.500000 0.004536
0.566999 0.817175 -0.308630
-0.256713 -0.006537 -0.308630
0.019586 1.500000 -0.028314
LINES 100 385
3 0 1 2
3 3 4 5
3 6 7 8
3 9 10 11
3 12 13 14
3 15 16 17
3 18 19 20
3 21 22 23
3 24 25 26
3 27 28 29
3 30 31 32
3 33 34 35
3 36 37 38
2 39 40
3 41 42 43
3 44 45 46
3 47 48 49
3 50 51 52
4 53 54 55 56
2 57 58
3 59 60 61
3 62 63 64
3 65 66 67
3 68 69 70
3 71 72 73
3 74 75 76
2 77 78
3 79 80 81
3 82 83 84
3 85 86 87
3 88 89 90
3 91 92 93
3 94 95 96
3 97 98 99
3 100 101 102
2 103 104
3 105 106 107
3 108 109 110
3 111 112 113
3 114 115 116
3 117 118 119
3 120 121 122
3 123 124 125
3 126 127 128
3 129 130 131
3 132 133 134
3 135 136 137
4 138 139 140 141
3 142 143 144
3 145 146 147
3 148 149 150
3 151 152 153
2 154 155
3 156 157 158
3 159 160 161
3 162 163 164
3 165 166 167
3 168 169 170
2 171 172
2 173 174
3 175 176 177
3 178 179 180
2 181 182
3 183 184 185
2 186 187
2 188 189
3 190 191 192
3 193 194 195
2 196 197
3 198 199 200
3 201 202 203
2 204 205
3 206 207 208
2 209 210
2 211 212
3 213 214 215
3 216 217 218
3 219 220 221
3 222 223 224
3 225 226 227
3 228 229 230
3 231 232 233
3 234 235 236
3 237 238 239
2 240 241
3 242 243 244
3 245 246 247
3 248 249 250
3 251 252 253
3 254 255 256
3 257 258 259
2 260 261
3 262 263 264
3 265 266 267
2 268 269
3 270 271 272
3 273 274 275
3 276 277 278
3 279 280 281
3 282 283 284
CELL_DATA 100
SCALARS Radiative_path_type float 1
LOOKUP_TABLE path_type
0.5
0.5
0.5
0.5
0.5
0.5
0.5
0.5
0.5
0.5
0.5
0.5
0.5
1.0
0.5
0.5
0.5
0.5
0.75
1.0
0.5
0.5
0.5
0.5
0.5
0.5
1.0
0.5
0.5
0.5
0.5
0.5
0.5
0.5
0.5
1.0
0.5
0.5
0.5
0.5
0.5
0.5
0.5
0.5
0.5
0.5
0.5
0.75
0.5
0.5
0.5
0.5
1.0
0.5
0.5
0.5
0.5
0.5
1.0
1.0
0.5
0.5
1.0
0.5
1.0
1.0
0.5
0.5
1.0
0.5
0.5
1.0
0.5
1.0
1.0
0.5
0.5
0.5
0.5
0.5
0.5
0.5
0.5
0.5
1.0
0.5
0.5
0.5
0.5
0.5
0.5
1.0
0.5
0.5
1.0
0.5
0.5
0.5
0.5
0.5
LOOKUP_TABLE path_type 5
1.0 0.0 0.0 1.0
0.0 1.0 0.0 1.0
0.0 0.0 1.0 1.0
0.0 1.0 1.0 1.0
1.0 1.0 0.0 1.0
