# vtk DataFile Version 2.0
Radiative paths
ASCII
DATASET POLYDATA
POINTS 300 float
0.921984 0.812189 -0.017745
0.105531 -0.004263 -0.017745
0.011014 1.500000 -0.017745
0.172047 0.805958 0.014301
-0.644406 -0.010495 0.014301
0.019960 1.500000 0.014301
0.320821 0.831231 -0.048459
-0.495632 0.014778 -0.048459
-0.029025 1.500000 -0.048459
0.721638 0.816708 -0.061854
-0.094815 0.000255 -0.061854
-0.000581 1.500000 -0.061854
0.717352 0.818643 -0.066238
-0.099101 0.002190 -0.066238
-0.004989 1.500000 -0.066238
0.723476 0.815878 -0.029733
-0.092976 -0.000575 -0.029733
0.001310 1.500000 -0.029733
0.365226 0.804317 0.062987
-0.451227 -0.012136 0.062987
0.023836 1.500000 0.062987
0.151404 0.820077 -0.016501
-0.665049 0.003624 -0.016501
-0.006893 1.500000 -0.016501
0.785070 0.788070 0.013558
-0.031383 -0.028382 0.013558
0.064650 1.500000 0.013558
0.767214 0.796132 0.031678
-0.049239 -0.020321 0.031678
0.046288 1.500000 0.031678
0.845642 0.841040 0.037090
0.029189 0.024588 0.037090
-0.063516 1.500000 0.037090
0.917267 0.813972 -0.040960
0.100814 -0.002481 -0.040960
0.006408 1.500000 -0.040960
0.129653 0.834954 0.055092
-0.686800 0.018501 0.055092
-0.035187 1.500000 0.055092
1.043029 0.833801 -0.025138
0.226576 0.017349 -0.025138
-0.052904 1.500000 -0.025138
1.113866 0.811924 -0.069306
0.297413 -0.004529 -0.069306
0.013810 1.500000 -0.069306
0.485442 0.841938 0.051658
-0.331010 0.025485 0.051658
-0.053064 1.500000 0.051658
0.707489 0.823096 -0.013807
-0.108964 0.006643 -0.013807
-0.015132 1.500000 -0.013807
1.041635 0.834232 -0.019040
0.225183 0.017779 -0.019040
-0.054216 1.500000 -0.019040
0.685044 0.833229 -0.002610
-0.131409 0.016776 -0.002610
-0.038213 1.500000 -0.002610
0.572774 0.795820 -0.023610
-0.243678 -0.020633 -0.023610
0.042961 1.500000 -0.023610
0.763913 0.797622 0.004161
-0.052540 -0.018831 0.004161
0.042893 1.500000 0.004161
0.122477 0.839862 0.049851
-0.693975 0.023409 0.049851
-0.044522 1.500000 0.049851
1.450711 0.821237 -0.063476
0.634258 0.004784 -0.063476
-0.023388 1.500000 -0.063476
0.916348 0.814320 0.028947
0.099895 -0.002133 0.028947
0.005511 1.500000 0.028947
0.131271 0.833848 0.031208
-0.685182 0.017395 0.031208
-0.033083 1.500000 0.031208
0.134212 0.831836 -0.043081
-0.682241 0.015383 -0.043081
-0.029257 1.500000 -0.043081
0.949712 0.801711 -0.007953
0.133259 -0.014742 -0.007953
0.038083 1.500000 -0.007953
1.103308 0.815185 -0.011783
0.286855 -0.001268 -0.011783
0.003866 1.500000 -0.011783
0.391520 0.788379 0.002028
-0.424933 -0.028073 0.002028
0.055137 1.500000 0.002028
0.390638 0.788914 0.005141
-0.425815 -0.027539 0.005141
0.054087 1.500000 0.005141
0.477462 0.846152 -0.054471
-0.338991 0.029699 -0.054471
-0.061839 1.500000 -0.054471
1.299879 0.813467 -0.049194
0.483426 -0.002986 -0.049194
0.011238 1.500000 -0.049194
1.158039 0.798282 0.061297
0.341586 -0.018171 0.061297
0.055411 1.500000 0.061297
1.272293 0.820232 -0.040954
0.455840 0.003779 -0.040954
-0.014223 1.500000 -0.040954
1.324282 0.807482 -0.041196
0.507829 -0.008971 -0.041196
0.033760 1.500000 -0.041196
1.504215 0.811196 -0.030427
0.687762 -0.005257 -0.030427
0.025700 1.500000 -0.030427
0.524887 0.821108 -0.024202
-0.291566 0.004656 -0.024202
-0.009694 1.500000 -0.024202
0.309365 0.838174 -0.001780
-0.507088 0.021722 -0.001780
-0.042662 1.500000 -0.001780
0.289496 0.850217 -0.008896
-0.526957 0.033765 -0.008896
-0.066315 1.500000 -0.008896
0.145772 0.823929 0.023327
-0.670681 0.007476 0.023327
-0.014219 1.500000 0.023327
1.067901 0.826120 0.028234
0.251449 0.009667 0.028234
-0.029479 1.500000 0.028234
1.249683 0.825777 -0.049912
0.433230 0.009324 -0.049912
-0.035090 1.500000 -0.049912
0.306658 0.839815 -0.057521
-0.509795 0.023362 -0.057521
-0.045884 1.500000 -0.057521
0.330887 0.825130 0.055487
-0.485566 0.008677 0.055487
-0.017042 1.500000 0.055487
0.344990 0.816582 0.008532
-0.471462 0.000129 0.008532
-0.000253 1.500000 0.008532
1.451409 0.821106 0.069312
0.634956 0.004653 0.069312
-0.022747 1.500000 0.069312
1.297913 0.813949 0.057543
0.481461 -0.002504 0.057543
0.009424 1.500000 0.057543
1.409008 0.829064 0.032041
0.592555 0.012611 0.032041
-0.061649 1.500000 0.032041
0.716806 0.818889 0.053905
-0.099647 0.002436 0.053905
-0.005550 1.500000 0.053905
0.544291 0.810861 -0.005783
-0.272161 -0.005592 -0.005783
0.011643 1.500000 -0.005783
0.155160 0.817508 0.041488
-0.661293 0.001055 0.041488
-0.002007 1.500000 0.041488
0.516625 0.825471 0.063478
-0.299828 0.009019 0.063478
-0.018778 1.500000 0.063478
0.580793 0.791586 -0.015383
-0.235660 -0.024867 -0.015383
0.051778 1.500000 -0.015383
0.152253 0.819496 -0.022943
-0.664200 0.003044 -0.022943
-0.005788 1.500000 -0.022943
0.688710 0.831574 0.039050
-0.127743 0.015121 0.039050
-0.034443 1.500000 0.039050
1.296865 0.814206 -0.007914
0.480412 -0.002247 -0.007914
0.008456 1.500000 -0.007914
0.514275 0.826712 -0.007816
-0.302178 0.010260 -0.007816
-0.021362 1.500000 -0.007816
1.074398 0.824113 -0.032521
0.257945 0.007661 -0.032521
-0.023361 1.500000 -0.032521
0.332488 0.824159 0.057443
-0.483965 0.007707 0.057443
-0.015136 1.500000 0.057443
1.236926 0.828906 0.003025
0.420473 0.012453 0.003025
-0.046864 1.500000 0.003025
0.385046 0.792303 0.004425
-0.431406 -0.024150 0.004425
0.047431 1.500000 0.004425
1.307727 0.811542 -0.005867
0.491274 -0.004911 -0.005867
0.018481 1.500000 -0.005867
0.920460 0.812765 -0.064133
0.104007 -0.003687 -0.064133
0.009526 1.500000 -0.064133
1.296990 0.814175 -0.003961
0.480537 -0.002278 -0.003961
0.008572 1.500000 -0.003961
0.490441 0.839299 -0.038721
-0.326012 0.022846 -0.038721
-0.047568 1.500000 -0.038721
1.243687 0.827248 0.061957
0.427234 0.010795 0.061957
-0.040625 1.500000 0.061957
0.294980 0.846894 -0.045482
-0.521473 0.030441 -0.045482
-0.059787 1.500000 -0.045482
1.296966 0.814181 -0.006471
0.480513 -0.002272 -0.006471
0.008549 1.500000 -0.006471
0.206941 0.782092 0.037507
-0.609512 -0.034361 0.037507
0.065351 1.500000 0.037507
1.262136 0.822723 0.011103
0.445684 0.006270 0.011103
-0.023596 1.500000 0.011103
0.480555 0.844519 0.028818
-0.335898 0.028066 0.028818
-0.058438 1.500000 0.028818
1.538882 0.804690 0.049634
0.722429 -0.011763 0.049634
0.057505 1.500000 0.049634
1.541340 0.804228 -0.026843
0.724887 -0.012224 -0.026843
0.059760 1.500000 -0.026843
0.663854 0.842796 -0.049457
-0.152599 0.026343 -0.049457
-0.060004 1.500000 -0.049457
0.593137 0.785067 0.025527
-0.223315 -0.031386 0.025527
0.065351 1.500000 0.025527
0.366221 0.803713 -0.006634
-0.450232 -0.012739 -0.006634
0.025020 1.500000 -0.006634
0.372873 0.799681 0.007634
-0.443579 -0.016771 0.007634
0.032940 1.500000 0.007634
0.132459 0.833035 0.014499
-0.683994 0.016582 0.014499
-0.031538 1.500000 0.014499
1.330786 0.805887 -0.055228
0.514333 -0.010566 -0.055228
0.039764 1.500000 -0.055228
0.194530 0.790580 0.068176
-0.621923 -0.025872 0.068176
0.049207 1.500000 0.068176
1.526968 0.806926 -0.047713
0.710515 -0.009527 -0.047713
0.046575 1.500000 -0.047713
0.193924 0.790995 -0.055096
-0.622529 -0.025458 -0.055096
0.048418 1.500000 -0.055096
0.373140 0.799520 -0.060000
-0.443312 -0.016933 -0.060000
0.033257 1.500000 -0.060000
0.499182 0.834682 -0.066636
-0.317270 0.018229 -0.066636
-0.037957 1.500000 -0.066636
1.353396 0.800342 0.045560
0.536943 -0.016111 0.045560
0.060632 1.500000 0.045560
0.173168 0.805191 0.010145
-0.643285 -0.011262 0.010145
0.021418 1.500000 0.010145
0.954309 0.799973 -0.047850
0.137856 -0.016480 -0.047850
0.042571 1.500000 -0.047850
1.347561 0.801773 0.009351
0.531108 -0.014680 0.009351
0.055246 1.500000 0.009351
1.069997 0.825473 -0.066080
0.253544 0.009020 -0.066080
-0.027506 1.500000 -0.066080
1.484566 0.814883 -0.025490
0.668113 -0.001570 -0.025490
0.007673 1.500000 -0.025490
1.287718 0.816449 -0.060998
0.471265 -0.000004 -0.060998
0.000014 1.500000 -0.060998
0.577920 0.793103 -0.035553
-0.238533 -0.023350 -0.035553
0.048619 1.500000 -0.035553
1.488631 0.814120 0.038637
0.672178 -0.002332 0.038637
0.011402 1.500000 0.038637
0.494218 0.837304 -0.048785
-0.322235 0.020851 -0.048785
-0.043416 1.500000 -0.048785
1.473841 0.816896 -0.000426
0.657389 0.000443 -0.000426
-0.002167 1.500000 -0.000426
0.754861 0.801709 0.028442
-0.061592 -0.014744 0.028442
0.033585 1.500000 0.028442
0.933125 0.807979 -0.030999
0.116672 -0.008474 -0.030999
0.021889 1.500000 -0.030999
0.168520 0.808370 0.017007
-0.647933 -0.008082 0.017007
0.015372 1.500000 0.017007
0.724559 0.815389 0.057402
-0.091894 -0.001064 0.057402
0.002423 1.500000 0.057402
0.490891 0.839061 -0.030073
-0.325562 0.022608 -0.030073
-0.047074 1.500000 -0.030073
LINES 100 400
3 0 1 2
3 3 4 5
3 6 7 8
3 9 10 11
3 12 13 14
3 15 16 17
3 18 19 20
3 21 22 23
3 24 25 26
3 27 28 29
3 30 31 32
3 33 34 35
3 36 37 38
3 39 40 41
3 42 43 44
3 45 46 47
3 48 49 50
3 51 52 53
3 54 55 56
3 57 58 59
3 60 61 62
3 63 64 65
3 66 67 68
3 69 70 71
3 72 73 74
3 75 76 77
3 78 79 80
3 81 82 83
3 84 85 86
3 87 88 89
3 90 91 92
3 93 94 95
3 96 97 98
3 99 100 101
3 102 103 104
3 105 106 107
3 108 109 110
3 111 112 113
3 114 115 116
3 117 118 119
3 120 121 122
3 123 124 125
3 126 127 128
3 129 130 131
3 132 133 134
3 135 136 137
3 138 139 140
3 141 142 143
3 144 145 146
3 147 148 149
3 150 151 152
3 153 154 155
3 156 157 158
3 159 160 161
3 162 163 164
3 165 166 167
3 168 169 170
3 171 172 173
3 174 175 176
3 177 178 179
3 180 181 182
3 183 184 185
3 186 187 188
3 189 190 191
3 192 193 194
3 195 196 197
3 198 199 200
3 201 202 203
3 204 205 206
3 207 208 209
3 210 211 212
3 213 214 215
3 216 217 218
3 219 220 221
3 222 223 224
3 225 226 227
3 228 229 230
3 231 232 233
3 234 235 236
3 237 238 239
3 240 241 242
3 243 244 245
3 246 247 248
3 249 250 251
3 252 253 254
3 255 256 257
3 258 259 260
3 261 262 263
3 264 265 266
3 267 268 269
3 270 271 272
3 273 274 275
3 276 277 278
3 279 280 281
3 282 283 284
3 285 286 287
3 288 289 290
3 291 292 293
3 294 295 296
3 297 298 299
CELL_DATA 100
SCALARS Radiative_path_type float 1
LOOKUP_TABLE path_type
0.5
0.5
0.5
0.5
0.5
0.5
0.5
0.5
0.5
0.5
0.5
0.5
0.5
0.5
0.5
0.5
0.5
0.5
0.5
0.5
0.5
0.5
0.5
0.5
0.5
0.5
0.5
0.5
0.5
0.5
0.5
0.5
0.5
0.5
0.5
0.5
0.5
0.5
0.5
0.5
0.5
0.5
0.5
0.5
0.5
0.5
0.5
0.5
0.5
0.5
0.5
0.5
0.5
0.5
0.5
0.5
0.5
0.5
0.5
0.5
0.5
0.5
0.5
0.5
0.5
0.5
0.5
0.5
0.5
0.5
0.5
0.5
0.5
0.5
0.5
0.5
0.5
0.5
0.5
0.5
0.5
0.5
0.5
0.5
0.5
0.5
0.5
0.5
0.5
0.5
0.5
0.5
0.5
0.5
0.5
0.5
0.5
0.5
0.5
0.5
LOOKUP_TABLE path_type 5
1.0 0.0 0.0 1.0
0.0 1.0 0.0 1.0
0.0 0.0 1.0 1.0
0.0 1.0 1.0 1.0
1.0 1.0 0.0 1.0
