# vtk DataFile Version 2.0
Radiative paths
ASCII
DATASET POLYDATA
POINTS 299 float
-0.711211 0.821415 -0.017745
0.105242 0.004962 -0.017745
0.011304 1.500000 -0.017745
-1.457932 0.819882 0.014301
-0.641479 0.003429 0.014301
0.016762 1.500000 0.014301
-1.315393 0.809662 -0.048459
-0.498940 -0.006791 -0.048459
-0.025557 1.500000 -0.048459
-0.911282 0.816234 -0.061854
-0.094830 -0.000219 -0.061854
-0.000566 1.500000 -0.061854
-0.915682 0.814571 -0.066238
-0.099229 -0.001882 -0.066238
-0.004860 1.500000 -0.066238
-0.909396 0.816947 -0.029733
-0.092943 0.000494 -0.029733
0.001276 1.500000 -0.029733
-1.264963 0.822030 0.062987
-0.448510 0.005577 0.062987
0.020988 1.500000 0.062987
-1.482512 0.815269 -0.016501
-0.666060 -0.001184 -0.016501
-0.005789 1.500000 -0.016501
-0.846180 0.840837 0.013558
-0.029727 0.024384 0.013558
0.062991 1.500000 0.013558
-0.864506 0.833911 0.031678
-0.048053 0.017458 0.031678
0.045100 1.500000 0.031678
-0.785594 0.787834 0.037090
0.030859 -0.028619 0.037090
-0.065190 1.500000 0.037090
-0.715807 0.819340 -0.040960
0.100645 0.002887 -0.040960
0.006577 1.500000 -0.040960
-1.508412 0.810408 0.055092
-0.691959 -0.006045 0.055092
-0.029551 1.500000 0.055092
-0.585691 0.788999 -0.025138
0.230762 -0.027454 -0.025138
-0.057163 1.500000 -0.025138
-0.520132 0.823619 -0.069306
0.296321 0.007166 -0.069306
0.014922 1.500000 -0.069306
-1.151349 0.800348 0.051658
-0.334896 -0.016104 0.051658
-0.049110 1.500000 0.051658
-0.925805 0.810746 -0.013807
-0.109352 -0.005707 -0.013807
-0.014743 1.500000 -0.013807
-0.586981 0.788318 -0.019040
0.229472 -0.028135 -0.019040
-0.058581 1.500000 -0.019040
-0.948841 0.802040 -0.002610
-0.132388 -0.014413 -0.002610
-0.037232 1.500000 -0.002610
-1.056985 0.829491 -0.023610
-0.240533 0.013038 -0.023610
0.039760 1.500000 -0.023610
-0.867894 0.832631 0.004161
-0.051442 0.016178 0.004161
0.041792 1.500000 0.004161
-1.516957 0.808804 0.049851
-0.700504 -0.007648 0.049851
-0.037390 1.500000 0.049851
-0.178111 0.801810 -0.063476
0.638342 -0.014643 -0.063476
-0.027849 1.500000 -0.063476
-0.716703 0.818936 0.028947
0.099750 0.002483 0.028947
0.005656 1.500000 0.028947
-1.506486 0.810769 0.031208
-0.690033 -0.005683 0.031208
-0.027784 1.500000 0.031208
-1.502984 0.811427 -0.043081
-0.686531 -0.005026 -0.043081
-0.024571 1.500000 -0.043081
-0.684195 0.833612 -0.007953
0.132258 0.017159 -0.007953
0.039086 1.500000 -0.007953
-0.529904 0.818459 -0.011783
0.286549 0.002006 -0.011783
0.004177 1.500000 -0.011783
-1.235101 0.829353 0.002028
-0.418648 0.012900 0.002028
0.048549 1.500000 0.002028
-1.236102 0.829108 0.005141
-0.419649 0.012655 0.005141
0.047625 1.500000 0.005141
-1.159972 0.797685 -0.054471
-0.343519 -0.018768 -0.054471
-0.057231 1.500000 -0.054471
-0.334482 0.822951 -0.049194
0.481971 0.006498 -0.049194
0.012763 1.500000 -0.049194
-0.479251 0.845207 0.061297
0.337202 0.028755 0.061297
0.059872 1.500000 0.061297
-0.358772 0.808229 -0.040954
0.457681 -0.008224 -0.040954
-0.016153 1.500000 -0.040954
-0.312994 0.835975 -0.041196
0.503458 0.019522 -0.041196
0.038341 1.500000 -0.041196
-0.133178 0.832543 -0.030427
0.683275 0.016090 -0.030427
0.030602 1.500000 -0.030427
-1.108729 0.813511 -0.024202
-0.292276 -0.002942 -0.024202
-0.008972 1.500000 -0.024202
-1.328403 0.806471 -0.001780
-0.511951 -0.009982 -0.001780
-0.037565 1.500000 -0.001780
-1.350969 0.800937 -0.008896
-0.534516 -0.015516 -0.008896
-0.058391 1.500000 -0.008896
-1.489219 0.814010 0.023327
-0.672766 -0.002443 0.023327
-0.011941 1.500000 0.023327
-0.562672 0.801155 0.028234
0.253781 -0.015298 0.028234
-0.031853 1.500000 0.028234
-0.378680 0.796162 -0.049912
0.437773 -0.020291 -0.049912
-0.039852 1.500000 -0.049912
-1.331478 0.805717 -0.057521
-0.515025 -0.010736 -0.057521
-0.040402 1.500000 -0.057521
-1.303962 0.812465 0.055487
-0.487509 -0.003987 0.055487
-0.015006 1.500000 0.055487
-1.287944 0.816394 0.008532
-0.471491 -0.000059 0.008532
-0.000223 1.500000 0.008532
-0.177525 0.802211 0.069312
0.638928 -0.014242 0.069312
-0.027086 1.500000 0.069312
-0.336212 0.821902 0.057543
0.480241 0.005449 0.057543
0.010703 1.500000 0.057543
-0.213134 0.777856 0.032041
0.603319 -0.038597 0.032041
-0.120789 0.841016 -0.035460
0.695663 0.024563 -0.035460
0.046717 1.500000 -0.035460
-0.119938 0.841599 0.004096
0.696515 0.025146 0.004096
0.047825 1.500000 0.004096
-1.085385 0.820720 0.030513
-0.268932 0.004267 0.030513
0.013014 1.500000 0.030513
-1.486190 0.814578 -0.055518
-0.669737 -0.001874 -0.055518
-0.009163 1.500000 -0.055518
-0.378414 0.796323 -0.033438
0.438039 -0.020129 -0.033438
-0.039535 1.500000 -0.033438
-0.156709 0.816449 -0.043296
0.659744 -0.000004 -0.043296
-0.000007 1.500000 -0.043296
-0.576889 0.793647 0.026551
0.239564 -0.022806 0.026551
-0.047485 1.500000 0.026551
-0.111778 0.847180 -0.016665
0.704675 0.030727 -0.016665
0.058439 1.500000 -0.016665
-0.345166 0.816475 -0.025708
0.471287 0.000023 -0.025708
0.000044 1.500000 -0.025708
-1.485855 0.814641 -0.053587
-0.669402 -0.001811 -0.053587
-0.008855 1.500000 -0.053587
-0.198134 0.788115 0.063579
0.618318 -0.028338 0.063579
-0.053895 1.500000 0.063579
-0.729683 0.813076 0.019548
0.086770 -0.003377 0.019548
-0.007692 1.500000 0.019548
-1.315706 0.809585 0.050999
-0.499253 -0.006868 0.050999
-0.025846 1.500000 0.050999
-0.488079 0.840546 -0.001419
0.328374 0.024093 -0.001419
0.050165 1.500000 -0.001419
-0.737460 0.809564 0.024413
0.078992 -0.006888 0.024413
-0.015690 1.500000 0.024413
-0.142483 0.826179 0.036290
0.673970 0.009726 0.036290
0.018497 1.500000 0.036290
-0.924105 0.811388 0.018890
-0.107652 -0.005065 0.018890
-0.013083 1.500000 0.018890
-1.487890 0.814259 -0.047938
-0.671437 -0.002193 -0.047938
-0.010722 1.500000 -0.047938
-0.890784 0.823980 0.059676
-0.074331 0.007528 0.059676
0.019446 1.500000 0.059676
-0.105360 0.851570 0.052534
0.711093 0.035117 0.052534
0.066789 1.500000 0.052534
-1.227179 0.831296 0.018869
-0.410726 0.014843 0.018869
0.055861 1.500000 0.018869
-0.746384 0.805536 -0.054100
0.070069 -0.010917 -0.054100
-0.024867 1.500000 -0.054100
-0.554646 0.805393 -0.042902
0.261807 -0.011060 -0.042902
-0.023028 1.500000 -0.042902
-1.261512 0.822876 -0.058618
-0.445059 0.006423 -0.058618
0.024173 1.500000 -0.058618
-0.924867 0.811100 -0.049549
-0.108414 -0.005353 -0.049549
-0.013828 1.500000 -0.049549
-0.895742 0.822107 0.058457
-0.079289 0.005654 0.058457
0.014606 1.500000 0.058457
-0.976069 0.791750 0.010248
-0.159616 -0.024703 0.010248
-0.063814 1.500000 0.010248
-1.164986 0.796137 0.002161
-0.348533 -0.020316 0.002161
-0.061953 1.500000 0.002161
-1.147195 0.801631 0.034214
-0.330742 -0.014822 0.034214
-0.045198 1.500000 0.034214
-0.775816 0.792248 0.050173
0.040637 -0.024205 0.050173
-0.055134 1.500000 0.050173
-0.308249 0.838851 0.044742
0.508203 0.022398 0.044742
0.043990 1.500000 0.044742
-1.413504 0.828220 0.042912
-0.597051 0.011767 0.042912
0.057523 1.500000 0.042912
-0.384278 0.792769 -0.053830
0.432174 -0.023684 -0.053830
-0.046516 1.500000 -0.053830
-0.384408 0.792690 0.003564
0.432044 -0.023763 0.003564
-0.046671 1.500000 0.003564
-1.221972 0.832573 0.038910
-0.405519 0.016120 0.038910
0.060666 1.500000 0.038910
-0.156328 0.816709 -0.050866
0.660125 0.000256 -0.050866
0.000487 1.500000 -0.050866
-0.907238 0.817762 0.067306
-0.090786 0.001309 0.067306
0.003382 1.500000 0.067306
-0.190653 0.793232 0.059901
0.625800 -0.023221 0.059901
-0.044164 1.500000 0.059901
-0.363830 0.805163 0.006328
0.452623 -0.011290 0.006328
-0.022174 1.500000 0.006328
-0.356152 0.809816 -0.024363
0.460301 -0.006637 -0.024363
-0.013034 1.500000 -0.024363
-0.538853 0.813733 0.055179
0.277600 -0.002720 0.055179
-0.005663 1.500000 0.055179
-0.541129 0.812531 -0.038930
0.275324 -0.003922 -0.038930
-0.008165 1.500000 -0.038930
-1.091779 0.818745 0.003915
-0.275327 0.002293 0.003915
0.006991 1.500000 0.003915
-0.397629 0.784677 -0.022517
0.418824 -0.031776 -0.022517
-0.062409 1.500000 -0.022517
-0.777478 0.791498 0.005561
0.038974 -0.024955 0.005561
-0.056844 1.500000 0.005561
-1.513162 0.809517 -0.022760
-0.696709 -0.006936 -0.022760
-0.033908 1.500000 -0.022760
-0.934055 0.807628 -0.025728
-0.117602 -0.008825 -0.025728
-0.022797 1.500000 -0.025728
-0.172019 0.805977 -0.002191
0.644434 -0.010475 -0.002191
-0.019923 1.500000 -0.002191
-0.702227 0.825471 0.052961
0.114225 0.009018 0.052961
0.020542 1.500000 0.052961
-0.918969 0.813329 -0.027188
-0.102516 -0.003124 -0.027188
-0.008070 1.500000 -0.027188
-0.169946 0.807395 0.009256
0.646507 -0.009058 0.009256
-0.017227 1.500000 0.009256
-0.368006 0.802631 -0.049082
0.448447 -0.013821 -0.049082
-0.027146 1.500000 -0.049082
LINES 100 399
3 0 1 2
3 3 4 5
3 6 7 8
3 9 10 11
3 12 13 14
3 15 16 17
3 18 19 20
3 21 22 23
3 24 25 26
3 27 28 29
3 30 31 32
3 33 34 35
3 36 37 38
3 39 40 41
3 42 43 44
3 45 46 47
3 48 49 50
3 51 52 53
3 54 55 56
3 57 58 59
3 60 61 62
3 63 64 65
3 66 67 68
3 69 70 71
3 72 73 74
3 75 76 77
3 78 79 80
3 81 82 83
3 84 85 86
3 87 88 89
3 90 91 92
3 93 94 95
3 96 97 98
3 99 100 101
3 102 103 104
3 105 106 107
3 108 109 110
3 111 112 113
3 114 115 116
3 117 118 119
3 120 121 122
3 123 124 125
3 126 127 128
3 129 130 131
3 132 133 134
3 135 136 137
3 138 139 140
2 141 142
3 143 144 145
3 146 147 148
3 149 150 151
3 152 153 154
3 155 156 157
3 158 159 160
3 161 162 163
3 164 165 166
3 167 168 169
3 170 171 172
3 173 174 175
3 176 177 178
3 179 180 181
3 182 183 184
3 185 186 187
3 188 189 190
3 191 192 193
3 194 195 196
3 197 198 199
3 200 201 202
3 203 204 205
3 206 207 208
3 209 210 211
3 212 213 214
3 215 216 217
3 218 219 220
3 221 222 223
3 224 225 226
3 227 228 229
3 230 231 232
3 233 234 235
3 236 237 238
3 239 240 241
3 242 243 244
3 245 246 247
3 248 249 250
3 251 252 253
3 254 255 256
3 257 258 259
3 260 261 262
3 263 264 265
3 266 267 268
3 269 270 271
3 272 273 274
3 275 276 277
3 278 279 280
3 281 282 283
3 284 285 286
3 287 288 289
3 290 291 292
3 293 294 295
3 296 297 298
CELL_DATA 100
SCALARS Radiative_path_type float 1
LOOKUP_TABLE path_type
0.5
0.5
0.5
0.5
0.5
0.5
0.5
0.5
0.5
0.5
0.5
0.5
0.5
0.5
0.5
0.5
0.5
0.5
0.5
0.5
0.5
0.5
0.5
0.5
0.5
0.5
0.5
0.5
0.5
0.5
0.5
0.5
0.5
0.5
0.5
0.5
0.5
0.5
0.5
0.5
0.5
0.5
0.5
0.5
0.5
0.5
0.5
1.0
0.5
0.5
0.5
0.5
0.5
0.5
0.5
0.5
0.5
0.5
0.5
0.5
0.5
0.5
0.5
0.5
0.5
0.5
0.5
0.5
0.5
0.5
0.5
0.5
0.5
0.5
0.5
0.5
0.5
0.5
0.5
0.5
0.5
0.5
0.5
0.5
0.5
0.5
0.5
0.5
0.5
0.5
0.5
0.5
0.5
0.5
0.5
0.5
0.5
0.5
0.5
0.5
LOOKUP_TABLE path_type 5
1.0 0.0 0.0 1.0
0.0 1.0 0.0 1.0
0.0 0.0 1.0 1.0
0.0 1.0 1.0 1.0
1.0 1.0 0.0 1.0
