# vtk DataFile Version 2.0
Radiative paths
ASCII
DATASET POLYDATA
POINTS 293 float
0.409210 1.048380 0.827634
0.409210 -0.007855 0.323836
-0.019021 1.500000 0.038349
0.302874 1.054260 0.375581
0.302874 -0.001975 -0.128217
0.018500 1.500000 0.013970
-0.311107 1.071894 0.315096
-0.311107 0.015659 -0.188703
-0.030072 1.500000 -0.048185
0.706177 1.069690 0.443543
0.706177 0.013455 -0.060255
0.002545 1.500000 -0.060255
-0.429562 1.068661 0.580616
-0.429562 0.012426 0.076817
-0.007091 1.500000 -0.064006
0.567642 1.065544 0.191528
0.567642 0.009309 -0.312271
0.003168 1.500000 -0.030033
0.599421 1.053845 0.099730
0.599421 -0.002390 -0.404068
0.030516 1.500000 0.022611
-0.729177 1.046866 0.562168
-0.729177 -0.009369 0.058369
-0.014742 1.500000 0.058369
-0.555183 1.051093 0.660141
-0.555183 -0.005142 0.156342
0.014765 1.500000 0.013856
-0.538672 1.040995 0.697234
-0.538672 -0.015240 0.193436
0.035099 1.500000 0.049993
0.358826 1.034843 0.255059
0.358826 -0.021392 -0.248740
0.354360 -0.005666 -0.245762
0.251315 -1.058857 -0.745377
0.710053 1.053737 0.954336
0.710053 -0.002498 0.450538
-0.001129 1.500000 0.023828
0.436653 1.043335 0.115866
0.436653 -0.012900 -0.387932
0.006990 1.500000 0.041731
0.160008 1.061172 0.485974
0.160008 0.004937 -0.017824
0.018476 1.500000 -0.017824
0.596189 1.062633 0.780628
0.596189 0.006398 0.276830
0.030612 1.500000 -0.005959
0.388462 1.041882 0.101400
0.388462 -0.014353 -0.402398
-0.041615 1.500000 0.027678
0.635629 1.064555 0.233704
0.635629 0.008320 -0.270094
0.070780 1.500000 0.012330
-0.147941 1.062787 0.200678
-0.147941 0.006552 -0.303120
-0.006562 1.500000 -0.020360
0.553714 1.029038 0.142176
0.553714 -0.027197 -0.361622
-0.669013 1.036230 0.105165
-0.669013 -0.020005 -0.398633
0.050456 1.500000 0.033048
0.731503 1.067693 0.612503
0.731503 0.011459 0.108705
0.026927 1.500000 -0.032210
0.764440 1.058352 0.701955
0.764440 0.002117 0.198157
0.055442 1.500000 0.056357
0.500794 1.037418 0.237781
0.500794 -0.018817 -0.266017
0.492743 0.002445 -0.261992
0.394543 -1.051562 -0.760862
-0.190402 1.063313 0.751796
-0.190402 0.007078 0.247997
-0.049072 1.500000 -0.034663
0.005634 1.058640 0.632220
0.005634 0.002405 0.128422
0.005634 1.500000 -0.013350
0.386255 1.052944 0.903151
0.386255 -0.003291 0.399353
-0.040680 1.500000 -0.027582
0.053962 1.069439 0.445443
0.053962 0.013204 -0.058355
0.053962 1.500000 -0.058355
-0.299901 1.041208 0.421458
-0.299901 -0.015027 -0.082340
0.751332 1.065991 0.219685
0.751332 0.009756 -0.284113
0.045950 1.500000 -0.001960
-0.582439 1.048117 0.400325
-0.582439 -0.008118 -0.103474
-0.011364 1.500000 0.039295
-0.480873 1.071553 0.197534
-0.480873 0.015318 -0.306264
-0.059224 1.500000 -0.025165
-0.327450 1.063447 0.210784
-0.327450 0.007212 -0.293014
-0.044815 1.500000 -0.010379
-0.393321 1.050304 0.796480
-0.393321 -0.005931 0.292682
0.034363 1.500000 0.007559
0.554917 1.053894 0.786649
0.554917 -0.002341 0.282851
-0.013969 1.500000 -0.001592
-0.423005 1.066577 0.187114
-0.423005 0.010342 -0.316685
0.000057 1.500000 -0.034643
-0.512108 1.048926 0.627365
-0.512108 -0.007309 0.123567
0.058660 1.500000 -0.019125
-0.076050 1.049153 0.975210
-0.076050 -0.007082 0.471412
0.066621 1.500000 0.043401
-0.340564 1.056564 0.827094
-0.340564 0.000329 0.323296
-0.056626 1.500000 0.039358
0.326995 1.053889 0.239763
0.326995 -0.002346 -0.264035
0.042551 1.500000 0.020409
0.383733 1.050977 0.075617
0.383733 -0.005258 -0.428181
-0.043760 1.500000 -0.000688
0.188768 1.058366 0.504642
0.188768 0.002131 0.000844
0.046970 1.500000 0.000844
-0.185869 1.049422 0.856607
-0.185869 -0.006813 0.352808
0.680108 1.040236 0.246648
0.680108 -0.015999 -0.257150
-0.037464 1.500000 0.029879
0.092524 1.046139 0.846536
0.092524 -0.010096 0.342738
-0.050432 1.500000 0.056826
0.096225 1.069317 0.306358
0.096225 0.013082 -0.197440
-0.044537 1.500000 -0.056678
-0.143969 1.061541 0.203887
-0.143969 0.005306 -0.299912
-0.002471 1.500000 -0.016916
-0.568740 1.053686 0.227911
-0.568740 -0.002549 -0.275887
0.000225 1.500000 0.008595
0.404501 1.028536 0.142691
0.404501 -0.027699 -0.361107
-0.339717 1.066091 0.878856
-0.339717 0.009856 0.375058
-0.057583 1.500000 -0.048143
0.734447 1.043150 0.276170
0.734447 -0.013085 -0.227628
-0.198880 1.064117 0.869802
-0.198880 0.007882 0.366003
-0.057626 1.500000 -0.057758
-0.402766 1.044268 0.540881
-0.402766 -0.011967 0.037083
0.026633 1.500000 0.037083
0.181329 1.066996 0.329972
0.181329 0.010761 -0.173826
0.040348 1.500000 -0.032845
-0.107561 1.069477 0.437874
-0.107561 0.013242 -0.065924
0.033185 1.500000 -0.065924
0.532890 1.048891 0.936987
0.532890 -0.007344 0.433189
-0.037891 1.500000 0.005103
-0.174427 1.056848 0.651387
-0.174427 0.000613 0.147589
-0.032485 1.500000 0.005647
0.222577 1.051554 0.074436
0.222577 -0.004681 -0.429363
-0.062309 1.500000 -0.002033
0.167093 1.050865 0.838449
0.167093 -0.005370 0.334650
0.024585 1.500000 0.049634
-0.375290 1.045898 0.372230
-0.375290 -0.010337 -0.131569
0.053646 1.500000 0.011410
-0.180327 1.056269 0.512038
-0.180327 0.000034 0.008240
-0.038330 1.500000 0.008240
-0.468853 1.060809 0.947292
-0.468853 0.004574 0.443493
-0.044152 1.500000 0.018792
0.322319 1.063318 0.489343
0.322319 0.007083 -0.014456
0.039660 1.500000 -0.014456
0.307538 1.057719 0.938905
0.307538 0.001484 0.435107
0.023819 1.500000 0.009529
-0.147635 1.055577 0.940747
-0.147635 -0.000658 0.436949
-0.005573 1.500000 0.010762
-0.552326 1.044220 0.393625
-0.552326 -0.012015 -0.110173
0.020223 1.500000 0.032964
0.262871 1.040253 0.564648
0.262871 -0.015982 0.060850
0.616679 1.078526 0.448682
0.616679 0.022291 -0.055116
0.057121 1.500000 -0.055116
0.741329 1.049663 0.261518
0.741329 -0.006572 -0.242280
0.028218 1.500000 0.042964
0.397933 1.069686 0.299131
0.397933 0.013451 -0.204667
-0.024247 1.500000 -0.063940
0.491162 1.056709 0.101290
0.491162 0.000474 -0.402508
0.065297 1.500000 0.023357
0.086887 1.067528 0.311150
0.086887 0.011293 -0.192649
-0.054044 1.500000 -0.051718
-0.366425 1.048284 0.641635
-0.366425 -0.007951 0.137837
0.061833 1.500000 -0.004916
-0.565724 1.060503 0.345160
-0.565724 0.004268 -0.158638
0.000660 1.500000 -0.017042
-0.711515 1.072963 0.034927
-0.711515 0.016728 -0.468871
-0.009433 1.500000 -0.047621
0.705802 1.041793 0.560225
0.705802 -0.014442 0.056426
-0.011034 1.500000 0.056426
-0.529388 1.031761 0.422080
-0.529388 -0.024474 -0.081718
-0.027089 1.073064 0.168341
-0.027089 0.016829 -0.335458
-0.027089 1.500000 -0.054644
0.389671 1.056144 0.617207
0.389671 -0.000090 0.113409
-0.036355 1.500000 -0.028599
-0.456190 1.057928 0.807629
-0.456190 0.001693 0.303830
-0.030670 1.500000 0.020151
-0.472367 1.066255 0.350234
-0.472367 0.010020 -0.153565
-0.049213 1.500000 -0.012513
0.453662 1.081082 0.022769
0.453662 0.024847 -0.481029
0.034718 1.500000 -0.062086
0.607845 1.042394 0.284494
0.607845 -0.013841 -0.219304
0.608771 1.079125 0.308585
0.608771 0.022890 -0.195214
0.049439 1.500000 -0.055381
-0.379420 1.045366 0.975441
-0.379420 -0.010869 0.471643
0.049667 1.500000 0.042556
-0.047713 1.058704 0.900538
-0.047713 0.002469 0.396739
-0.047713 1.500000 -0.028559
-0.663251 1.057954 0.450127
-0.663251 0.001719 -0.053672
0.045935 1.500000 -0.053672
0.081825 1.058262 0.481689
0.081825 0.002027 -0.022109
-0.059983 1.500000 -0.022109
0.243132 1.073028 0.156457
0.243132 0.016793 -0.347341
-0.037689 1.500000 -0.066521
0.045560 1.039314 0.122632
0.045560 -0.016921 -0.381166
0.045560 1.500000 0.049639
0.295670 1.041249 0.419814
0.295670 -0.014986 -0.083984
0.008833 1.500000 0.059435
0.093787 1.062529 0.054906
0.093787 0.006294 -0.448892
-0.047617 1.500000 -0.024680
0.578078 1.053345 0.378871
0.578078 -0.002890 -0.124927
0.008983 1.500000 0.017346
0.219400 1.037768 0.110074
0.219400 -0.018467 -0.393724
-0.068096 1.500000 0.037521
0.150394 1.058807 0.904400
0.150394 0.002572 0.400602
0.008638 1.500000 -0.024668
0.000016 1.075196 0.161822
0.000016 0.018961 -0.341976
0.000016 1.500000 -0.061566
0.475038 1.066525 0.894389
0.475038 0.010290 0.390591
0.051960 1.500000 -0.032487
0.725372 1.045986 0.114011
0.725372 -0.010249 -0.389787
0.010521 1.500000 0.039123
-0.760252 1.055716 0.710551
-0.760252 -0.000519 0.206753
0.541984 1.059374 0.195336
0.541984 0.003139 -0.308462
-0.024828 1.500000 -0.025057
0.195287 1.064632 0.202161
0.195287 0.008397 -0.301637
0.054081 1.500000 -0.019227
LINES 100 393
3 0 1 2
3 3 4 5
3 6 7 8
3 9 10 11
3 12 13 14
3 15 16 17
3 18 19 20
3 21 22 23
3 24 25 26
3 27 28 29
4 30 31 32 33
3 34 35 36
3 37 38 39
3 40 41 42
3 43 44 45
3 46 47 48
3 49 50 51
3 52 53 54
2 55 56
3 57 58 59
3 60 61 62
3 63 64 65
4 66 67 68 69
3 70 71 72
3 73 74 75
3 76 77 78
3 79 80 81
2 82 83
3 84 85 86
3 87 88 89
3 90 91 92
3 93 94 95
3 96 97 98
3 99 100 101
3 102 103 104
3 105 106 107
3 108 109 110
3 111 112 113
3 114 115 116
3 117 118 119
3 120 121 122
2 123 124
3 125 126 127
3 128 129 130
3 131 132 133
3 134 135 136
3 137 138 139
2 140 141
3 142 143 144
2 145 146
3 147 148 149
3 150 151 152
3 153 154 155
3 156 157 158
3 159 160 161
3 162 163 164
3 165 166 167
3 168 169 170
3 171 172 173
3 174 175 176
3 177 178 179
3 180 181 182
3 183 184 185
3 186 187 188
3 189 190 191
2 192 193
3 194 195 196
3 197 198 199
3 200 201 202
3 203 204 205
3 206 207 208
3 209 210 211
3 212 213 214
3 215 216 217
3 218 219 220
2 221 222
3 223 224 225
3 226 227 228
3 229 230 231
3 232 233 234
3 235 236 237
2 238 239
3 240 241 242
3 243 244 245
3 246 247 248
3 249 250 251
3 252 253 254
3 255 256 257
3 258 259 260
3 261 262 263
3 264 265 266
3 267 268 269
3 270 271 272
3 273 274 275
3 276 277 278
3 279 280 281
3 282 283 284
2 285 286
3 287 288 289
3 290 291 292
CELL_DATA 100
SCALARS Radiative_path_type float 1
LOOKUP_TABLE path_type
0.5
0.5
0.5
0.5
0.5
0.5
0.5
0.5
0.5
0.5
0.75
0.5
0.5
0.5
0.5
0.5
0.5
0.5
1.0
0.5
0.5
0.5
0.75
0.5
0.5
0.5
0.5
1.0
0.5
0.5
0.5
0.5
0.5
0.5
0.5
0.5
0.5
0.5
0.5
0.5
0.5
1.0
0.5
0.5
0.5
0.5
0.5
1.0
0.5
1.0
0.5
0.5
0.5
0.5
0.5
0.5
0.5
0.5
0.5
0.5
0.5
0.5
0.5
0.5
0.5
1.0
0.5
0.5
0.5
0.5
0.5
0.5
0.5
0.5
0.5
1.0
0.5
0.5
0.5
0.5
0.5
1.0
0.5
0.5
0.5
0.5
0.5
0.5
0.5
0.5
0.5
0.5
0.5
0.5
0.5
0.5
0.5
1.0
0.5
0.5
LOOKUP_TABLE path_type 5
1.0 0.0 0.0 1.0
0.0 1.0 0.0 1.0
0.0 0.0 1.0 1.0
0.0 1.0 1.0 1.0
1.0 1.0 0.0 1.0
