# vtk DataFile Version 2.0
Radiative paths
ASCII
DATASET POLYDATA
POINTS 282 float
-0.414802 0.817818 0.324021
0.408820 -0.005803 0.324021
-0.018828 1.500000 0.038922
-0.522868 0.831706 -0.127716
0.300754 0.008085 -0.127716
0.018284 1.500000 0.013519
-1.135608 0.817615 -0.190392
-0.311987 -0.006007 -0.190392
-0.026849 1.500000 -0.047823
-0.114128 0.823265 -0.061854
0.709494 -0.000357 -0.061854
-0.000675 1.500000 -0.061854
-1.253890 0.818903 0.075853
-0.430268 -0.004718 0.075853
-0.002929 1.500000 -0.066593
-0.255897 0.826614 -0.313614
0.567724 0.002993 -0.313614
0.000858 1.500000 -0.030181
-0.228435 0.837632 -0.402792
0.595186 0.014011 -0.402792
0.032492 1.500000 0.019229
-1.549880 0.820803 0.059918
-0.726259 -0.002819 0.059918
-0.014925 1.500000 0.059918
-1.378532 0.827236 0.156561
-0.554910 0.003614 0.156561
0.011721 1.500000 0.014903
-1.361239 0.833002 0.194220
-0.537618 0.009380 0.194220
0.026830 1.500000 0.053109
-0.455768 0.785302 -0.247070
0.367854 -0.038320 -0.247070
-0.115854 0.825882 0.450459
0.707767 0.002260 0.450459
-0.001163 1.500000 0.025101
-0.387285 0.823266 -0.385725
0.436336 -0.000356 -0.385725
0.010235 1.500000 0.040376
-0.665126 0.831385 -0.018275
0.158495 0.007764 -0.018275
0.017230 1.500000 -0.018275
-0.231031 0.838797 0.276791
0.592591 0.015176 0.276791
0.030337 1.500000 -0.004336
-0.429563 0.800635 -0.401029
0.394058 -0.022987 -0.401029
-0.286961 0.798275 -0.237109
0.536661 -0.025347 -0.237109
-1.185365 0.840326 0.046941
-0.361743 0.016705 0.046941
0.059512 1.500000 0.046941
-1.541561 0.818445 -0.402401
-0.717940 -0.005176 -0.402401
-0.005490 1.500000 0.025069
-0.508075 0.842489 -0.438049
0.315546 0.018868 -0.438049
0.035118 1.500000 -0.017407
-0.221176 0.845711 0.138484
0.602446 0.022090 0.138484
0.042810 1.500000 -0.001425
-0.685758 0.820846 0.127077
0.137863 -0.002776 0.127077
-0.004400 1.500000 -0.015186
-0.585905 0.789915 -0.371261
0.237717 -0.033706 -0.371261
-1.206251 0.828543 -0.383540
-0.382630 0.004922 -0.383540
0.041972 1.500000 0.041062
-0.844982 0.806376 0.375928
-0.021361 -0.017246 0.375928
-0.021361 1.500000 -0.054970
-0.789424 0.837548 -0.422568
0.034198 0.013926 -0.422568
0.034198 1.500000 -0.000523
-0.864733 0.795772 -0.362267
-0.041112 -0.027849 -0.362267
-1.133660 0.815591 -0.043081
-0.310039 -0.008030 -0.043081
-0.024518 1.500000 -0.043081
-0.220246 0.845715 0.276079
0.603375 0.022094 0.276079
0.043741 1.500000 -0.003738
-0.961579 0.825076 -0.011783
-0.137958 0.001455 -0.011783
0.003905 1.500000 -0.011783
-0.632617 0.846685 0.002028
0.191005 0.023064 0.002028
0.051188 1.500000 0.002028
-1.056789 0.839079 -0.136866
-0.233168 0.015458 -0.136866
0.047906 1.500000 0.003671
-1.192482 0.845623 -0.347255
-0.368860 0.022002 -0.347255
0.050891 1.500000 -0.067421
-0.813976 0.833046 -0.332942
0.009646 0.009425 -0.332942
0.009646 1.500000 -0.050727
-0.766990 0.847079 0.069720
0.056631 0.023457 0.069720
0.056631 1.500000 0.069720
-0.859648 0.803625 -0.239317
-0.036027 -0.019997 -0.239317
-0.617981 0.849939 -0.075104
0.205640 0.026318 -0.075104
0.066132 1.500000 0.064404
-0.397830 0.823714 0.285993
0.425791 0.000093 0.285993
-0.000182 1.500000 0.002011
-0.426068 0.814949 -0.476965
0.397554 -0.008673 -0.476965
-0.030909 1.500000 -0.048502
-0.568056 0.808591 -0.019650
0.255565 -0.015030 -0.019650
-0.031280 1.500000 -0.019650
-0.697809 0.825494 -0.484929
0.125812 0.001873 -0.484929
-0.016011 1.500000 -0.059461
-1.393284 0.823264 0.015784
-0.569663 -0.000357 0.015784
-0.001527 1.500000 0.015784
-0.164608 0.786387 -0.117680
0.659013 -0.037234 -0.117680
-0.296823 0.796998 0.015087
0.526799 -0.026624 0.015087
-1.186092 0.843677 -0.205479
-0.362471 0.020056 -0.205479
0.057834 1.500000 -0.065378
-0.739193 0.798014 -0.299558
0.084428 -0.025608 -0.299558
-0.653333 0.840298 -0.202370
0.170289 0.016677 -0.202370
0.029867 1.500000 -0.061949
-0.153976 0.793030 0.413309
0.669646 -0.030591 0.413309
-1.391673 0.822701 -0.275514
-0.568052 -0.000920 -0.275514
0.000297 1.500000 0.008660
-0.414456 0.802561 -0.357344
0.409165 -0.021060 -0.357344
0.404645 -0.005145 -0.352824
1.221844 -0.829026 -0.252270
-1.158977 0.799010 0.375467
-0.335356 -0.024611 0.375467
-1.052694 0.841521 0.428230
-0.229073 0.017900 0.428230
0.051538 1.500000 0.007314
-1.016093 0.795212 0.366481
-0.192472 -0.028410 0.366481
-0.730367 0.799736 -0.125777
0.093254 -0.023886 -0.125777
-0.626178 0.848831 0.125008
0.197443 0.025209 0.125008
0.057830 1.500000 -0.014605
-0.231194 0.839704 -0.147258
0.592428 0.016082 -0.147258
0.030518 1.500000 -0.006781
-0.723561 0.814226 0.491480
0.100061 -0.009395 0.491480
-1.120705 0.822546 -0.445086
-0.297083 -0.001075 -0.445086
-0.012880 1.500000 -0.018780
-0.493301 0.849936 -0.299312
0.330321 0.026314 -0.299312
0.051303 1.500000 -0.020294
-1.112773 0.822033 -0.022943
-0.289152 -0.001589 -0.022943
-0.004851 1.500000 -0.022943
-1.256697 0.827555 -0.462312
-0.433075 0.003933 -0.462312
-0.008192 1.500000 -0.037429
-0.691001 0.824929 0.336395
0.132620 0.001307 0.336395
-0.009256 1.500000 0.052642
-1.196227 0.840144 -0.305851
-0.372606 0.016522 -0.305851
0.048702 1.500000 -0.024980
-0.847606 0.813687 -0.032521
-0.023985 -0.009935 -0.032521
-0.023985 1.500000 -0.032521
-1.109598 0.822193 0.127152
-0.285977 -0.001428 0.127152
-0.001707 1.500000 -0.014983
-1.585143 0.814737 0.287009
-0.761522 -0.008884 0.287009
-0.047317 1.500000 0.001327
-0.639388 0.843295 -0.137581
0.184234 0.019674 -0.137581
0.044096 1.500000 0.002557
-0.830731 0.825412 0.327293
-0.007110 0.001791 0.327293
-0.007110 1.500000 0.043632
-1.454323 0.810145 -0.004564
-0.630701 -0.013476 -0.004564
-0.526869 0.836296 0.461923
0.296752 0.012675 0.461923
0.015152 1.500000 0.039523
-1.404954 0.817628 -0.407335
-0.581332 -0.005994 -0.407335
-0.011063 1.500000 0.020368
-1.580854 0.815433 0.033953
-0.757233 -0.008188 0.033953
-0.043357 1.500000 0.033953
-0.379260 0.834405 0.059676
0.444361 0.010784 0.059676
0.021424 1.500000 0.059676
-1.060384 0.848394 0.485619
-0.236763 0.024773 0.485619
0.042547 1.500000 0.066655
-0.239773 0.833862 0.026552
0.583848 0.010241 0.026552
0.019726 1.500000 0.026552
-1.301981 0.810009 0.042432
-0.478359 -0.013612 0.042432
-0.676215 0.822314 -0.248760
0.147406 -0.001308 -0.248760
0.005283 1.500000 0.035488
-1.427968 0.809739 -0.229095
-0.604347 -0.013882 -0.229095
-0.031090 1.500000 0.057533
-1.585052 0.817242 -0.191118
-0.761431 -0.006380 -0.191118
-0.048411 1.500000 -0.048514
-1.159135 0.808047 0.431369
-0.335514 -0.015574 0.431369
-0.517846 0.833464 -0.111319
0.305775 0.009843 -0.111319
0.023639 1.500000 0.029749
-0.367483 0.841323 0.069939
0.456138 0.017701 0.069939
0.035166 1.500000 0.069939
-1.142613 0.814860 -0.179731
-0.318992 -0.008762 -0.179731
-0.033333 1.500000 -0.036902
-0.121003 0.816363 0.103269
0.702618 -0.007258 0.103269
-0.010817 1.500000 -0.039418
-1.415352 0.824334 0.339438
-0.591731 0.000713 0.339438
-0.024000 1.500000 0.055573
-0.676188 0.827675 0.434875
0.147434 0.004054 0.434875
0.005817 1.500000 0.010026
-0.204266 0.863820 -0.348354
0.619355 0.040198 -0.348354
0.066577 1.500000 -0.071965
-1.507130 0.827469 -0.127293
-0.683509 0.003848 -0.127293
0.024670 1.500000 0.014343
-0.657540 0.836377 0.433452
0.166081 0.012755 0.433452
0.025289 1.500000 0.011074
-1.468566 0.836434 -0.430964
-0.644945 0.012812 -0.430964
0.058990 1.500000 -0.008602
-0.846140 0.817314 -0.196993
-0.022518 -0.006308 -0.196993
-0.022518 1.500000 -0.054396
-0.203786 0.854412 -0.257612
0.619835 0.030791 -0.257612
0.063495 1.500000 0.020558
-1.543070 0.815842 0.226287
-0.719449 -0.007779 0.226287
-0.005767 1.500000 -0.059186
-1.525788 0.823166 -0.107606
-0.702166 -0.000455 -0.107606
0.008049 1.500000 0.034437
-1.488297 0.833606 0.301900
-0.664675 0.009985 0.301900
0.040599 1.500000 0.019790
-1.297613 0.808205 0.411129
-0.473991 -0.015416 0.411129
-1.296063 0.808483 -0.257911
-0.472442 -0.015139 -0.257911
-0.672342 0.823947 0.400783
0.151280 0.000326 0.400783
0.009310 1.500000 -0.025125
-0.825986 0.829313 -0.344686
-0.002365 0.005692 -0.344686
-0.002365 1.500000 -0.061764
-0.352132 0.844950 0.390784
0.471490 0.021329 0.390784
0.051547 1.500000 -0.029159
LINES 100 382
3 0 1 2
3 3 4 5
3 6 7 8
3 9 10 11
3 12 13 14
3 15 16 17
3 18 19 20
3 21 22 23
3 24 25 26
3 27 28 29
2 30 31
3 32 33 34
3 35 36 37
3 38 39 40
3 41 42 43
2 44 45
2 46 47
3 48 49 50
3 51 52 53
3 54 55 56
3 57 58 59
3 60 61 62
2 63 64
3 65 66 67
3 68 69 70
3 71 72 73
2 74 75
3 76 77 78
3 79 80 81
3 82 83 84
3 85 86 87
3 88 89 90
3 91 92 93
3 94 95 96
3 97 98 99
2 100 101
3 102 103 104
3 105 106 107
3 108 109 110
3 111 112 113
3 114 115 116
3 117 118 119
2 120 121
2 122 123
3 124 125 126
2 127 128
3 129 130 131
2 132 133
3 134 135 136
4 137 138 139 140
2 141 142
3 143 144 145
2 146 147
2 148 149
3 150 151 152
3 153 154 155
2 156 157
3 158 159 160
3 161 162 163
3 164 165 166
3 167 168 169
3 170 171 172
3 173 174 175
3 176 177 178
3 179 180 181
3 182 183 184
3 185 186 187
3 188 189 190
2 191 192
3 193 194 195
3 196 197 198
3 199 200 201
3 202 203 204
3 205 206 207
3 208 209 210
2 211 212
3 213 214 215
3 216 217 218
3 219 220 221
2 222 223
3 224 225 226
3 227 228 229
3 230 231 232
3 233 234 235
3 236 237 238
3 239 240 241
3 242 243 244
3 245 246 247
3 248 249 250
3 251 252 253
3 254 255 256
3 257 258 259
3 260 261 262
3 263 264 265
3 266 267 268
2 269 270
2 271 272
3 273 274 275
3 276 277 278
3 279 280 281
CELL_DATA 100
SCALARS Radiative_path_type float 1
LOOKUP_TABLE path_type
0.5
0.5
0.5
0.5
0.5
0.5
0.5
0.5
0.5
0.5
1.0
0.5
0.5
0.5
0.5
1.0
1.0
0.5
0.5
0.5
0.5
0.5
1.0
0.5
0.5
0.5
1.0
0.5
0.5
0.5
0.5
0.5
0.5
0.5
0.5
1.0
0.5
0.5
0.5
0.5
0.5
0.5
1.0
1.0
0.5
1.0
0.5
1.0
0.5
0.75
1.0
0.5
1.0
1.0
0.5
0.5
1.0
0.5
0.5
0.5
0.5
0.5
0.5
0.5
0.5
0.5
0.5
0.5
1.0
0.5
0.5
0.5
0.5
0.5
0.5
1.0
0.5
0.5
0.5
1.0
0.5
0.5
0.5
0.5
0.5
0.5
0.5
0.5
0.5
0.5
0.5
0.5
0.5
0.5
0.5
1.0
1.0
0.5
0.5
0.5
LOOKUP_TABLE path_type 5
1.0 0.0 0.0 1.0
0.0 1.0 0.0 1.0
0.0 0.0 1.0 1.0
0.0 1.0 1.0 1.0
1.0 1.0 0.0 1.0
