# vtk DataFile Version 2.0
absorber
ASCII
DATASET POLYDATA
POINTS 4225 float
-0.121094 1.500000 -0.121094
-0.125000 1.500000 -0.125000
-0.121094 1.500000 -0.125000
-0.125000 1.500000 -0.121094
-0.121094 1.500000 -0.117188
-0.125000 1.500000 -0.117188
-0.121094 1.500000 -0.113281
-0.125000 1.500000 -0.113281
-0.121094 1.500000 -0.109375
-0.125000 1.500000 -0.109375
-0.121094 1.500000 -0.105469
-0.125000 1.500000 -0.105469
-0.121094 1.500000 -0.101562
-0.125000 1.500000 -0.101562
-0.121094 1.500000 -0.097656
-0.125000 1.500000 -0.097656
-0.121094 1.500000 -0.093750
-0.125000 1.500000 -0.093750
-0.121094 1.500000 -0.089844
-0.125000 1.500000 -0.089844
-0.121094 1.500000 -0.085938
-0.125000 1.500000 -0.085938
-0.121094 1.500000 -0.082031
-0.125000 1.500000 -0.082031
-0.121094 1.500000 -0.078125
-0.125000 1.500000 -0.078125
-0.121094 1.500000 -0.074219
-0.125000 1.500000 -0.074219
-0.121094 1.500000 -0.070312
-0.125000 1.500000 -0.070312
-0.121094 1.500000 -0.066406
-0.125000 1.500000 -0.066406
-0.121094 1.500000 -0.062500
-0.125000 1.500000 -0.062500
-0.121094 1.500000 -0.058594
-0.125000 1.500000 -0.058594
-0.121094 1.500000 -0.054688
-0.125000 1.500000 -0.054688
-0.121094 1.500000 -0.050781
-0.125000 1.500000 -0.050781
-0.121094 1.500000 -0.046875
-0.125000 1.500000 -0.046875
-0.121094 1.500000 -0.042969
-0.125000 1.500000 -0.042969
-0.121094 1.500000 -0.039062
-0.125000 1.500000 -0.039062
-0.121094 1.500000 -0.035156
-0.125000 1.500000 -0.035156
-0.121094 1.500000 -0.031250
-0.125000 1.500000 -0.031250
-0.121094 1.500000 -0.027344
-0.125000 1.500000 -0.027344
-0.121094 1.500000 -0.023438
-0.125000 1.500000 -0.023438
-0.121094 1.500000 -0.019531
-0.125000 1.500000 -0.019531
-0.121094 1.500000 -0.015625
-0.125000 1.500000 -0.015625
-0.121094 1.500000 -0.011719
-0.125000 1.500000 -0.011719
-0.121094 1.500000 -0.007812
-0.125000 1.500000 -0.007812
-0.121094 1.500000 -0.003906
-0.125000 1.500000 -0.003906
-0.121094 1.500000 0.000000
-0.125000 1.500000 0.000000
-0.121094 1.500000 0.003906
-0.125000 1.500000 0.003906
-0.121094 1.500000 0.007812
-0.125000 1.500000 0.007812
-0.121094 1.500000 0.011719
-0.125000 1.500000 0.011719
-0.121094 1.500000 0.015625
-0.125000 1.500000 0.015625
-0.121094 1.500000 0.019531
-0.125000 1.500000 0.019531
-0.121094 1.500000 0.023438
-0.125000 1.500000 0.023438
-0.121094 1.500000 0.027344
-0.125000 1.500000 0.027344
-0.121094 1.500000 0.031250
-0.125000 1.500000 0.031250
-0.121094 1.500000 0.035156
-0.125000 1.500000 0.035156
-0.121094 1.500000 0.039062
-0.125000 1.500000 0.039062
-0.121094 1.500000 0.042969
-0.125000 1.500000 0.042969
-0.121094 1.500000 0.046875
-0.125000 1.500000 0.046875
-0.121094 1.500000 0.050781
-0.125000 1.500000 0.050781
-0.121094 1.500000 0.054688
-0.125000 1.500000 0.054688
-0.121094 1.500000 0.058594
-0.125000 1.500000 0.058594
-0.121094 1.500000 0.062500
-0.125000 1.500000 0.062500
-0.121094 1.500000 0.066406
-0.125000 1.500000 0.066406
-0.121094 1.500000 0.070312
-0.125000 1.500000 0.070312
-0.121094 1.500000 0.074219
-0.125000 1.500000 0.074219
-0.121094 1.500000 0.078125
-0.125000 1.500000 0.078125
-0.121094 1.500000 0.082031
-0.125000 1.500000 0.082031
-0.121094 1.500000 0.085938
-0.125000 1.500000 0.085938
-0.121094 1.500000 0.089844
-0.125000 1.500000 0.089844
-0.121094 1.500000 0.093750
-0.125000 1.500000 0.093750
-0.121094 1.500000 0.097656
-0.125000 1.500000 0.097656
-0.121094 1.500000 0.101562
-0.125000 1.500000 0.101562
-0.121094 1.500000 0.105469
-0.125000 1.500000 0.105469
-0.121094 1.500000 0.109375
-0.125000 1.500000 0.109375
-0.121094 1.500000 0.113281
-0.125000 1.500000 0.113281
-0.121094 1.500000 0.117188
-0.125000 1.500000 0.117188
-0.121094 1.500000 0.121094
-0.125000 1.500000 0.121094
-0.121094 1.500000 0.125000
-0.125000 1.500000 0.125000
-0.117188 1.500000 -0.121094
-0.117188 1.500000 -0.125000
-0.117188 1.500000 -0.117188
-0.117188 1.500000 -0.113281
-0.117188 1.500000 -0.109375
-0.117188 1.500000 -0.105469
-0.117188 1.500000 -0.101562
-0.117188 1.500000 -0.097656
-0.117188 1.500000 -0.093750
-0.117188 1.500000 -0.089844
-0.117188 1.500000 -0.085938
-0.117188 1.500000 -0.082031
-0.117188 1.500000 -0.078125
-0.117188 1.500000 -0.074219
-0.117188 1.500000 -0.070312
-0.117188 1.500000 -0.066406
-0.117188 1.500000 -0.062500
-0.117188 1.500000 -0.058594
-0.117188 1.500000 -0.054688
-0.117188 1.500000 -0.050781
-0.117188 1.500000 -0.046875
-0.117188 1.500000 -0.042969
-0.117188 1.500000 -0.039062
-0.117188 1.500000 -0.035156
-0.117188 1.500000 -0.031250
-0.117188 1.500000 -0.027344
-0.117188 1.500000 -0.023438
-0.117188 1.500000 -0.019531
-0.117188 1.500000 -0.015625
-0.117188 1.500000 -0.011719
-0.117188 1.500000 -0.007812
-0.117188 1.500000 -0.003906
-0.117188 1.500000 0.000000
-0.117188 1.500000 0.003906
-0.117188 1.500000 0.007812
-0.117188 1.500000 0.011719
-0.117188 1.500000 0.015625
-0.117188 1.500000 0.019531
-0.117188 1.500000 0.023438
-0.117188 1.500000 0.027344
-0.117188 1.500000 0.031250
-0.117188 1.500000 0.035156
-0.117188 1.500000 0.039062
-0.117188 1.500000 0.042969
-0.117188 1.500000 0.046875
-0.117188 1.500000 0.050781
-0.117188 1.500000 0.054688
-0.117188 1.500000 0.058594
-0.117188 1.500000 0.062500
-0.117188 1.500000 0.066406
-0.117188 1.500000 0.070312
-0.117188 1.500000 0.074219
-0.117188 1.500000 0.078125
-0.117188 1.500000 0.082031
-0.117188 1.500000 0.085938
-0.117188 1.500000 0.089844
-0.117188 1.500000 0.093750
-0.117188 1.500000 0.097656
-0.117188 1.500000 0.101562
-0.117188 1.500000 0.105469
-0.117188 1.500000 0.109375
-0.117188 1.500000 0.113281
-0.117188 1.500000 0.117188
-0.117188 1.500000 0.121094
-0.117188 1.500000 0.125000
-0.113281 1.500000 -0.121094
-0.113281 1.500000 -0.125000
-0.113281 1.500000 -0.117188
-0.113281 1.500000 -0.113281
-0.113281 1.500000 -0.109375
-0.113281 1.500000 -0.105469
-0.113281 1.500000 -0.101562
-0.113281 1.500000 -0.097656
-0.113281 1.500000 -0.093750
-0.113281 1.500000 -0.089844
-0.113281 1.500000 -0.085938
-0.113281 1.500000 -0.082031
-0.113281 1.500000 -0.078125
-0.113281 1.500000 -0.074219
-0.113281 1.500000 -0.070312
-0.113281 1.500000 -0.066406
-0.113281 1.500000 -0.062500
-0.113281 1.500000 -0.058594
-0.113281 1.500000 -0.054688
-0.113281 1.500000 -0.050781
-0.113281 1.500000 -0.046875
-0.113281 1.500000 -0.042969
-0.113281 1.500000 -0.039062
-0.113281 1.500000 -0.035156
-0.113281 1.500000 -0.031250
-0.113281 1.500000 -0.027344
-0.113281 1.500000 -0.023438
-0.113281 1.500000 -0.019531
-0.113281 1.500000 -0.015625
-0.113281 1.500000 -0.011719
-0.113281 1.500000 -0.007812
-0.113281 1.500000 -0.003906
-0.113281 1.500000 0.000000
-0.113281 1.500000 0.003906
-0.113281 1.500000 0.007812
-0.113281 1.500000 0.011719
-0.113281 1.500000 0.015625
-0.113281 1.500000 0.019531
-0.113281 1.500000 0.023438
-0.113281 1.500000 0.027344
-0.113281 1.500000 0.031250
-0.113281 1.500000 0.035156
-0.113281 1.500000 0.039062
-0.113281 1.500000 0.042969
-0.113281 1.500000 0.046875
-0.113281 1.500000 0.050781
-0.113281 1.500000 0.054688
-0.113281 1.500000 0.058594
-0.113281 1.500000 0.062500
-0.113281 1.500000 0.066406
-0.113281 1.500000 0.070312
-0.113281 1.500000 0.074219
-0.113281 1.500000 0.078125
-0.113281 1.500000 0.082031
-0.113281 1.500000 0.085938
-0.113281 1.500000 0.089844
-0.113281 1.500000 0.093750
-0.113281 1.500000 0.097656
-0.113281 1.500000 0.101562
-0.113281 1.500000 0.105469
-0.113281 1.500000 0.109375
-0.113281 1.500000 0.113281
-0.113281 1.500000 0.117188
-0.113281 1.500000 0.121094
-0.113281 1.500000 0.125000
-0.109375 1.500000 -0.121094
-0.109375 1.500000 -0.125000
-0.109375 1.500000 -0.117188
-0.109375 1.500000 -0.113281
-0.109375 1.500000 -0.109375
-0.109375 1.500000 -0.105469
-0.109375 1.500000 -0.101562
-0.109375 1.500000 -0.097656
-0.109375 1.500000 -0.093750
-0.109375 1.500000 -0.089844
-0.109375 1.500000 -0.085938
-0.109375 1.500000 -0.082031
-0.109375 1.500000 -0.078125
-0.109375 1.500000 -0.074219
-0.109375 1.500000 -0.070312
-0.109375 1.500000 -0.066406
-0.109375 1.500000 -0.062500
-0.109375 1.500000 -0.058594
-0.109375 1.500000 -0.054688
-0.109375 1.500000 -0.050781
-0.109375 1.500000 -0.046875
-0.109375 1.500000 -0.042969
-0.109375 1.500000 -0.039062
-0.109375 1.500000 -0.035156
-0.109375 1.500000 -0.031250
-0.109375 1.500000 -0.027344
-0.109375 1.500000 -0.023438
-0.109375 1.500000 -0.019531
-0.109375 1.500000 -0.015625
-0.109375 1.500000 -0.011719
-0.109375 1.500000 -0.007812
-0.109375 1.500000 -0.003906
-0.109375 1.500000 0.000000
-0.109375 1.500000 0.003906
-0.109375 1.500000 0.007812
-0.109375 1.500000 0.011719
-0.109375 1.500000 0.015625
-0.109375 1.500000 0.019531
-0.109375 1.500000 0.023438
-0.109375 1.500000 0.027344
-0.109375 1.500000 0.031250
-0.109375 1.500000 0.035156
-0.109375 1.500000 0.039062
-0.109375 1.500000 0.042969
-0.109375 1.500000 0.046875
-0.109375 1.500000 0.050781
-0.109375 1.500000 0.054688
-0.109375 1.500000 0.058594
-0.109375 1.500000 0.062500
-0.109375 1.500000 0.066406
-0.109375 1.500000 0.070312
-0.109375 1.500000 0.074219
-0.109375 1.500000 0.078125
-0.109375 1.500000 0.082031
-0.109375 1.500000 0.085938
-0.109375 1.500000 0.089844
-0.109375 1.500000 0.093750
-0.109375 1.500000 0.097656
-0.109375 1.500000 0.101562
-0.109375 1.500000 0.105469
-0.109375 1.500000 0.109375
-0.109375 1.500000 0.113281
-0.109375 1.500000 0.117188
-0.109375 1.500000 0.121094
-0.109375 1.500000 0.125000
-0.105469 1.500000 -0.121094
-0.105469 1.500000 -0.125000
-0.105469 1.500000 -0.117188
-0.105469 1.500000 -0.113281
-0.105469 1.500000 -0.109375
-0.105469 1.500000 -0.105469
-0.105469 1.500000 -0.101562
-0.105469 1.500000 -0.097656
-0.105469 1.500000 -0.093750
-0.105469 1.500000 -0.089844
-0.105469 1.500000 -0.085938
-0.105469 1.500000 -0.082031
-0.105469 1.500000 -0.078125
-0.105469 1.500000 -0.074219
-0.105469 1.500000 -0.070312
-0.105469 1.500000 -0.066406
-0.105469 1.500000 -0.062500
-0.105469 1.500000 -0.058594
-0.105469 1.500000 -0.054688
-0.105469 1.500000 -0.050781
-0.105469 1.500000 -0.046875
-0.105469 1.500000 -0.042969
[...]
CELL_DATA 8192
SCALARS Front_faces_Incoming_flux double 2
LOOKUP_TABLE default
0 0
0 0
0 0
0 0
0 0
0 0
0 0
0 0
0 0
0 0
0 0
0 0
0 0
0 0
0 0
0 0
0 0
0 0
0 0
0 0
0 0
0 0
0 0
0 0
0 0
0 0
0 0
0 0
0 0
0 0
0 0
0 0
0 0
0 0
0 0
0 0
0 0
0 0
0 0
0 0
0 0
0 0
0 0
0 0
0 0
0 0
0 0
0 0
0 0
0 0
0 0
0 0
0 0
0 0
0 0
0 0
0 0
0 0
0 0
0 0
0 0
0 0
0 0
0 0
0 0
0 0
0 0
0 0
0 0
0 0
0 0
0 0
0 0
0 0
0 0
0 0
0 0
0 0
0 0
0 0
0 0
0 0
0 0
0 0
0 0
0 0
0 0
0 0
0 0
0 0
0 0
0 0
0 0
0 0
0 0
0 0
0 0
0 0
0 0
0 0
0 0
0 0
0 0
0 0
0 0
0 0
0 0
0 0
0 0
0 0
0 0
0 0
0 0
0 0
0 0
0 0
0 0
0 0
0 0
0 0
0 0
0 0
0 0
0 0
0 0
0 0
0 0
0 0
0 0
0 0
0 0
0 0
0 0
0 0
0 0
0 0
0 0
0 0
0 0
0 0
0 0
0 0
0 0
0 0
0 0
0 0
0 0
0 0
0 0
0 0
0 0
0 0
0 0
0 0
0 0
0 0
0 0
0 0
0 0
0 0
0 0
0 0
0 0
0 0
0 0
0 0
0 0
0 0
0 0
0 0
0 0
0 0
0 0
0 0
0 0
0 0
0 0
0 0
0 0
0 0
0 0
0 0
0 0
0 0
0 0
0 0
0 0
0 0
0 0
0 0
0 0
0 0
0 0
0 0
0 0
0 0
0 0
0 0
0 0
0 0
0 0
0 0
0 0
0 0
0 0
0 0
0 0
0 0
0 0
0 0
0 0
0 0
0 0
0 0
0 0
0 0
0 0
0 0
0 0
0 0
0 0
0 0
0 0
0 0
0 0
0 0
0 0
0 0
0 0
0 0
0 0
0 0
0 0
0 0
0 0
0 0
0 0
0 0
0 0
0 0
0 0
0 0
0 0
0 0
0 0
0 0
0 0
0 0
0 0
0 0
0 0
0 0
0 0
0 0
0 0
0 0
0 0
0 0
0 0
0 0
0 0
0 0
0 0
0 0
0 0
0 0
0 0
0 0
0 0
0 0
0 0
0 0
0 0
0 0
0 0
0 0
0 0
0 0
0 0
0 0
0 0
0 0
0 0
0 0
0 0
0 0
0 0
0 0
0 0
0 0
0 0
0 0
0 0
0 0
0 0
0 0
0 0
0 0
0 0
0 0
0 0
0 0
0 0
0 0
0 0
0 0
0 0
0 0
0 0
0 0
0 0
0 0
0 0
0 0
0 0
0 0
0 0
0 0
0 0
0 0
0 0
0 0
0 0
0 0
0 0
0 0
0 0
0 0
0 0
0 0
0 0
0 0
0 0
0 0
0 0
0 0
0 0
0 0
0 0
0 0
0 0
0 0
0 0
0 0
0 0
0 0
0 0
0 0
0 0
0 0
0 0
0 0
0 0
0 0
0 0
0 0
0 0
0 0
0 0
0 0
0 0
0 0
0 0
0 0
0 0
0 0
0 0
0 0
0 0
0 0
0 0
0 0
0 0
0 0
0 0
0 0
0 0
0 0
0 0
0 0
0 0
0 0
0 0
0 0
0 0
0 0
0 0
0 0
0 0
0 0
0 0
0 0
0 0
0 0
0 0
0 0
0 0
0 0
0 0
0 0
0 0
0 0
0 0
0 0
0 0
0 0
0 0
0 0
0 0
0 0
0 0
0 0
0 0
0 0
0 0
0 0
0 0
0 0
0 0
0 0
0 0
0 0
0 0
0 0
0 0
0 0
0 0
0 0
0 0
0 0
0 0
0 0
0 0
0 0
0 0
0 0
0 0
0 0
0 0
0 0
0 0
0 0
0 0
0 0
0 0
0 0
0 0
0 0
0 0
0 0
0 0
0 0
0 0
0 0
0 0
0 0
0 0
0 0
0 0
0 0
0 0
0 0
0 0
0 0
0 0
0 0
0 0
0 0
0 0
0 0
0 0
0 0
0 0
0 0
0 0
0 0
0 0
0 0
0 0
0 0
0 0
0 0
0 0
0 0
0 0
0 0
0 0
0 0
0 0
0 0
0 0
0 0
0 0
0 0
0 0
0 0
0 0
0 0
0 0
0 0
0 0
0 0
0 0
0 0
0 0
0 0
0 0
0 0
0 0
0 0
0 0
0 0
0 0
0 0
0 0
0 0
0 0
0 0
0 0
0 0
0 0
0 0
0 0
0 0
0 0
0 0
0 0
0 0
0 0
0 0
0 0
0 0
0 0
0 0
0 0
0 0
0 0
0 0
0 0
0 0
0 0
0 0
0 0
0 0
0 0
0 0
0 0
0 0
0 0
0 0
0 0
0 0
0 0
0 0
0 0
0 0
0 0
0 0
0 0
0 0
0 0
0 0
0 0
0 0
0 0
0 0
0 0
0 0
0 0
0 0
0 0
0 0
0 0
0 0
0 0
0 0
0 0
0 0
0 0
0 0
0 0
0 0
0 0
0 0
0 0
0 0
0 0
0 0
0 0
0 0
0 0
0 0
0 0
0 0
0 0
0 0
0 0
0 0
0 0
0 0
0 0
0 0
0 0
0 0
0 0
0 0
0 0
0 0
0 0
0 0
0 0
0 0
0 0
0 0
0 0
0 0
0 0
0 0
0 0
0 0
0 0
0 0
0 0
0 0
0 0
0 0
0 0
0 0
0 0
0 0
0 0
0 0
0 0
0 0
0 0
0 0
0 0
0 0
0 0
0 0
0 0
0 0
0 0
0 0
0 0
0 0
0 0
0 0
0 0
0 0
0 0
0 0
0 0
0 0
0 0
0 0
0 0
0 0
0 0
0 0
0 0
0 0
0 0
0 0
0 0
0 0
0 0
0 0
0 0
0 0
0 0
0 0
0 0
0 0
0 0
0 0
0 0
0 0
0 0
0 0
0 0
0 0
0 0
0 0
0 0
0 0
0 0
0 0
0 0
0 0
0 0
0 0
0 0
0 0
0 0
0 0
0 0
0 0
0 0
0 0
0 0
0 0
0 0
0 0
0 0
0 0
0 0
0 0
0 0
0 0
0 0
0 0
0 0
0 0
0 0
0 0
0 0
0 0
0 0
0 0
0 0
0 0
0 0
0 0
0 0
0 0
0 0
0 0
0 0
0 0
0 0
0 0
0 0
0 0
0 0
0 0
0 0
0 0
0 0
0 0
0 0
0 0
0 0
0 0
0 0
0 0
0 0
0 0
0 0
0 0
0 0
0 0
0 0
0 0
0 0
0 0
0 0
0 0
0 0
0 0
0 0
0 0
0 0
0 0
0 0
0 0
0 0
0 0
0 0
0 0
0 0
0 0
0 0
0 0
0 0
0 0
0 0
0 0
0 0
0 0
0 0
0 0
0 0
0 0
0 0
0 0
0 0
0 0
0 0
0 0
0 0
0 0
0 0
0 0
0 0
0 0
0 0
0 0
0 0
0 0
0 0
0 0
0 0
0 0
0 0
0 0
0 0
0 0
0 0
0 0
0 0
0 0
0 0
0 0
0 0
0 0
0 0
0 0
0 0
0 0
0 0
0 0
0 0
0 0
0 0
0 0
0 0
0 0
0 0
0 0
0 0
0 0
0 0
0 0
0 0
0 0
0 0
0 0
0 0
0 0
0 0
0 0
0 0
0 0
0 0
0 0
0 0
0 0
0 0
0 0
0 0
0 0
0 0
0 0
0 0
0 0
0 0
0 0
0 0
0 0
0 0
0 0
0 0
0 0
38.2958 27.0792
0 0
306.366 76.5915
0 0
0 0
0 0
0 0
0 0
0 0
0 0
0 0
0 0
0 0
0 0
0 0
0 0
0 0
0 0
0 0
0 0
0 0
0 0
0 0
0 0
0 0
0 0
0 0
0 0
0 0
0 0
0 0
0 0
0 0
0 0
0 0
0 0
0 0
0 0
0 0
0 0
0 0
0 0
0 0
0 0
0 0
0 0
0 0
0 0
0 0
0 0
0 0
0 0
0 0
0 0
0 0
0 0
0 0
0 0
0 0
0 0
0 0
0 0
0 0
0 0
0 0
0 0
0 0
0 0
0 0
0 0
0 0
0 0
0 0
0 0
0 0
0 0
0 0
0 0
0 0
0 0
0 0
0 0
0 0
0 0
0 0
0 0
0 0
0 0
0 0
0 0
0 0
0 0
0 0
0 0
0 0
0 0
0 0
0 0
0 0
0 0
0 0
0 0
0 0
0 0
0 0
0 0
0 0
0 0
0 0
0 0
0 0
0 0
0 0
0 0
0 0
0 0
0 0
0 0
0 0
0 0
0 0
0 0
0 0
0 0
0 0
0 0
0 0
0 0
513.621 98.8465
420.692 89.692
1450.88 166.428
765.073 120.969
95.0368 42.5018
0 0
0 0
0 0
0 0
0 0
0 0
0 0
0 0
0 0
0 0
0 0
0 0
0 0
0 0
0 0
0 0
0 0
0 0
0 0
0 0
0 0
0 0
0 0
0 0
0 0
0 0
0 0
0 0
0 0
0 0
0 0
0 0
0 0
0 0
0 0
0 0
0 0
0 0
0 0
0 0
0 0
0 0
0 0
0 0
0 0
0 0
0 0
0 0
0 0
0 0
0 0
0 0
0 0
0 0
0 0
0 0
0 0
0 0
0 0
0 0
0 0
0 0
0 0
0 0
0 0
0 0
0 0
0 0
0 0
0 0
0 0
0 0
0 0
0 0
0 0
0 0
0 0
0 0
0 0
0 0
0 0
0 0
0 0
0 0
0 0
0 0
0 0
0 0
0 0
0 0
0 0
0 0
0 0
0 0
0 0
0 0
0 0
0 0
0 0
0 0
0 0
0 0
0 0
0 0
0 0
0 0
0 0
0 0
0 0
0 0
0 0
0 0
0 0
0 0
0 0
0 0
0 0
0 0
0 0
0 0
0 0
56.4965 32.6183
150.657 53.2654
1862.51 188.147
2388.22 213.614
3266.91 249.834
2118.34 201.068
341.733 80.5483
19.0074 19.0074
0 0
0 0
0 0
0 0
0 0
0 0
0 0
0 0
0 0
0 0
0 0
0 0
0 0
0 0
0 0
0 0
0 0
0 0
0 0
0 0
0 0
0 0
0 0
0 0
0 0
0 0
0 0
0 0
0 0
0 0
0 0
0 0
0 0
0 0
0 0
0 0
0 0
0 0
0 0
0 0
0 0
0 0
0 0
0 0
0 0
0 0
0 0
0 0
0 0
0 0
0 0
0 0
0 0
0 0
0 0
0 0
0 0
0 0
0 0
0 0
0 0
0 0
0 0
0 0
0 0
0 0
0 0
0 0
0 0
0 0
0 0
0 0
0 0
0 0
0 0
0 0
0 0
0 0
0 0
0 0
0 0
0 0
0 0
0 0
0 0
0 0
0 0
0 0
0 0
0 0
0 0
0 0
0 0
0 0
0 0
0 0
0 0
0 0
0 0
0 0
0 0
0 0
0 0
0 0
0 0
0 0
0 0
0 0
0 0
0 0
0 0
0 0
0 0
0 0
0 0
0 0
0 0
0 0
0 0
0 0
170.373 56.7913
452.561 92.3789
3797.08 268.51
4544.13 293.954
5250.55 316.066
4072.85 278.428
779.653 121.767
0 0
0 0
0 0
0 0
0 0
0 0
0 0
0 0
0 0
0 0
0 0
0 0
0 0
0 0
0 0
0 0
0 0
0 0
0 0
0 0
0 0
0 0
0 0
0 0
0 0
0 0
0 0
0 0
0 0
0 0
0 0
0 0
0 0
0 0
0 0
0 0
0 0
0 0
0 0
0 0
0 0
0 0
0 0
0 0
0 0
0 0
0 0
0 0
0 0
0 0
0 0
0 0
0 0
0 0
0 0
0 0
0 0
0 0
0 0
0 0
0 0
0 0
0 0
0 0
0 0
0 0
0 0
0 0
0 0
0 0
0 0
0 0
0 0
0 0
0 0
0 0
0 0
0 0
0 0
0 0
0 0
0 0
0 0
0 0
0 0
0 0
0 0
0 0
0 0
0 0
0 0
0 0
0 0
0 0
0 0
0 0
0 0
0 0
0 0
0 0
0 0
0 0
0 0
0 0
0 0
0 0
0 0
0 0
0 0
0 0
0 0
0 0
0 0
0 0
0 0
0 0
0 0
0 0
0 0
0 0
0 0
304.491 76.1249
1577.28 173.135
4939.16 305.749
5841.19 332.864
5053.58 308.728
4805.09 301.531
583.685 104.851
19.1582 19.1582
0 0
0 0
0 0
0 0
0 0
0 0
0 0
0 0
0 0
0 0
0 0
0 0
0 0
0 0
0 0
0 0
0 0
0 0
0 0
0 0
0 0
0 0
0 0
0 0
0 0
0 0
0 0
0 0
0 0
0 0
0 0
0 0
0 0
0 0
0 0
0 0
0 0
0 0
0 0
0 0
0 0
0 0
0 0
0 0
0 0
0 0
0 0
0 0
0 0
0 0
289.098 74.6448
385.464 86.1923
1403.36 164.251
845.879 127.521
2526.15 219.876
594.308 106.743
2098.68 200.108
267.893 71.5988
2024.46 196.64
460.73 94.0471
1549.89 172.214
191.503 60.5599
1282.28 156.658
95.9094 42.8925
766.643 121.219
19.2732 19.2732
402.735 87.8852
19.2732 19.2732
192.311 60.8142
0 0
0 0
0 0
0 0
0 0
0 0
0 0
0 0
0 0
0 0
0 0
0 0
0 0
0 0
0 0
0 0
0 0
0 0
0 0
0 0
0 0
0 0
0 0
0 0
0 0
0 0
0 0
0 0
0 0
0 0
0 0
0 0
0 0
0 0
0 0
0 0
0 0
0 0
0 0
0 0
0 0
0 0
0 0
0 0
0 0
0 0
0 0
0 0
0 0
0 0
0 0
171.426 57.1445
648.246 111.177
2741.64 226.909
4254.88 282.427
3961.71 271.47
4922.64 302.427
967.254 132.867
37.013 26.1727
0 0
0 0
0 0
0 0
0 0
0 0
0 0
0 0
0 0
0 0
0 0
0 0
0 0
0 0
0 0
0 0
0 0
0 0
0 0
0 0
0 0
0 0
0 0
0 0
0 0
0 0
0 0
0 0
0 0
0 0
0 0
0 0
0 0
0 0
0 0
0 0
0 0
0 0
0 0
0 0
0 0
0 0
0 0
0 0
0 0
0 0
0 0
0 0
0 0
0 0
560.652 104.111
1527.53 171.861
2669.68 227.261
3357.75 254.552
6826.66 362.328
6157.43 343.683
10059.9 437.846
8066.36 391.324
11006.7 456.327
7755.33 383.073
9692.08 427.997
6360.3 347.031
9947.71 433.824
6414.14 348.429
9549.97 425.042
6135.94 340.937
8978.64 412.041
5469.92 321.807
8479.59 400.253
5695.35 328.322
7825.46 384.669
4908.24 305.023
7903.39 386.175
4049.76 276.878
7562.68 377.736
3265.52 248.312
7374.21 373.002
3197.21 245.977
6486.6 349.804
2193.07 203.66
5509.23 321.915
2170.49 202.432
5190.25 312.472
1657.65 176.738
4034.42 275.194
1244.66 153.233
4296.03 283.951
1086.29 142.658
4048.19 275.498
505.324 97.2679
3408.91 252.733
464.722 92.9621
3103.94 240.96
353.91 81.2082
1939.64 190.229
330.565 77.9223
1740.15 179.513
202.655 61.1052
1332.65 157.068
73.3399 36.6723
1178.31 147.302
183.254 57.9523
1046.58 138.632
36.5513 25.8463
620.76 106.464
72.5822 36.2911
328.679 77.4729
18.1455 18.1455
236.673 65.6424
18.4058 18.4058
90.7277 40.5747
0 0
254.038 67.8944
0 0
72.5822 36.2911
18.1455 18.1455
163.31 54.4366
0 0
54.4366 31.429
0 0
76.7292 38.3833
114.227 46.6362
373.455 83.5129
2003.89 192.831
2702.45 222.903
3640.03 258.7
1075.2 139.982
199.686 60.2081
0 0
0 0
0 0
0 0
0 0
0 0
0 0
0 0
0 0
0 0
0 0
0 0
0 0
0 0
0 0
0 0
0 0
0 0
0 0
0 0
0 0
0 0
0 0
0 0
0 0
0 0
0 0
0 0
0 0
0 0
0 0
0 0
0 0
0 0
0 0
0 0
0 0
0 0
0 0
0 0
0 0
0 0
0 0
0 0
0 0
0 0
0 0
0 0
0 0
0 0
406.32 88.6671
1414.45 165.551
5368.85 322.614
6922.76 364.945
17846.3 583.482
15951.3 551.467
24247.5 679.45
19136.3 602.834
25392.4 694.307
19586.7 610.113
24649.7 684.313
19914.5 614.69
24746 685.398
19060.3 601.349
24672.8 684.426
17941.1 583.121
24751.9 685.304
18367.3 590.154
24520.5 682.044
17289.3 572.299
23359.1 665.894
16929.7 566.005
24111.4 676.701
15985.2 550.323
23599.4 669.209
16290.5 554.646
22695.6 655.825
15901.3 548.105
21643.6 640.573
15947.2 549.353
23137.5 662.547
14270.4 519.446
22088.5 647.257
14339.4 520.928
20674.2 626.032
13515.9 505.21
21903 644.321
13309.8 501.366
21084.3 632.097
12761.8 490.572
20906.7 629.335
11644.2 468.861
21012.5 631.087
11702.5 469.687
22466.4 652.753
10461.4 443.747
22174.1 648.38
10733.1 449.651
22335.5 650.883
10007.1 433.948
22914.7 659.144
10678.6 448.142
23037.2 661.297
9072.48 412.898
22908.8 659.243
9730.31 428.04
24211 677.363
9573.48 424.442
23446.6 667.302
8704.87 405.531
23546 668.511
8822.37 408.358
23869.3 673.629
9685.89 427.762
24833.8 686.775
9168.71 416.454
24322.6 679.688
9616.4 427.206
25548.1 696.486
10547.8 448.252
22371 651.656
7387.25 374.685
9754.36 427.442
3267.21 245.616
6522.14 347.167
3910.07 267.291
1418.95 160.665
326.733 77.0117
0 0
0 0
0 0
0 0
0 0
0 0
0 0
0 0
0 0
0 0
0 0
0 0
0 0
0 0
0 0
0 0
0 0
0 0
0 0
0 0
0 0
0 0
0 0
0 0
0 0
0 0
0 0
0 0
0 0
0 0
0 0
0 0
0 0
0 0
0 0
0 0
0 0
0 0
0 0
0 0
0 0
0 0
0 0
0 0
0 0
0 0
0 0
0 0
0 0
0 0
213.127 64.2609
1453.14 167.796
6194.76 346.883
10784.2 456.247
30138.6 759.602
39484.5 867.776
56215.6 1035.12
47887.1 954.428
56173.8 1034.52
48529.4 961.149
56025.9 1033.21
48886.4 964.818
56889.2 1040.68
52293.5 997.676
58802.9 1058.29
49845.8 974.114
58257.5 1053.59
52119.2 996.162
59240.4 1062.22
50003.1 975.892
59968.1 1068.41
54597 1019.59
61535.3 1082.49
53252.7 1007.38
61842.8 1085.55
56304.5 1035.18
62608.2 1092.29
55149.9 1025.27
63292.8 1098.06
56749.7 1040.02
64348.3 1107.4
55814.1 1031.05
64599.7 1109.28
58129.3 1052.49
64304.7 1106.65
58325.7 1054.66
66989.8 1129.69
60087.6 1070.36
65642.8 1118.14
58349.9 1054.41
68365.4 1141.4
61951 1086.78
68955.3 1145.84
61829.2 1085.14
68331.1 1140.83
61939.8 1086.42
70039.7 1154.64
63656.9 1101.54
72152.9 1171.93
64348.1 1107.22
69532.8 1150.83
63921.8 1103.82
69393.9 1149.32
65846.4 1120.3
70736.1 1160.3
65054.3 1113.29
71759.5 1168.63
64669.5 1109.79
70281 1156.58
68794.4 1144.26
70175.7 1155.63
66065.7 1121.44
71042.5 1162.98
66166.6 1122.19
72273.3 1172.79
65677.4 1117.59
71932 1170.04
65082.5 1112.15
71971.8 1170.37
64489.5 1107.68
67304.2 1131.13
47904.6 953.276
32828.6 787.844
26352.1 705.174
16757.8 562.489
8522.46 398.744
1276.2 152.536
272.733 70.42
0 0
0 0
0 0
0 0
0 0
0 0
0 0
0 0
0 0
0 0
0 0
0 0
0 0
0 0
0 0
0 0
0 0
0 0
0 0
0 0
0 0
0 0
0 0
0 0
0 0
0 0
0 0
0 0
0 0
0 0
0 0
0 0
0 0
0 0
0 0
0 0
0 0
0 0
0 0
0 0
0 0
0 0
0 0
0 0
0 0
0 0
0 0
0 0
0 0
0 0
174.02 58.0072
1143.12 148.823
5870.54 337.837
9870.61 437.186
31139.4 772.884
48308.2 961.482
63754.4 1102.42
63837.4 1102.71
68569.7 1142.45
65816.9 1119.34
67559 1133.99
65976.4 1120.6
69188.4 1147.51
66647.2 1126.47
69627.9 1150.99
68223.2 1139.52
70996.2 1161.94
66337.9 1123.66
70172.2 1155.42
67503.6 1133.68
72583 1175.21
68646.6 1143.24
70360.1 1156.95
71558.4 1166.76
71564.3 1166.7
70333.2 1156.82
70793.6 1160.94
69461.1 1149.98
73351.3 1181.32
72118 1171.38
70896.5 1161.53
70539.8 1158.66
73725.5 1184.26
71492.8 1166.3
71332.1 1165.09
71724.5 1168.06
75861.9 1201.2
73362.3 1181.49
71489.8 1166.1
72671.4 1175.72
71872.5 1168.93
71468.7 1166.21
70269.4 1156.24
71939.4 1169.54
75023.3 1194.83
72721.8 1176.38
74384.8 1189.8
74148.5 1188
72766.2 1176.63
72272.5 1172.94
73513.1 1183
71987.5 1170.18
72944.5 1178.28
68975.3 1145.38
73551 1183.3
73936.7 1185.82
72766.4 1176.48
72799.2 1176.86
71834.2 1169.07
70312 1156.46
70812.4 1160.78
72345.1 1173.21
70681.7 1159.42
73067.4 1179.03
73577.9 1183.12
72490.2 1174.17
75219.1 1195.98
72304.9 1172.86
71699 1167.5
72887.5 1177.52
60390.8 1070.69
46228.6 935.24
22666.7 651.762
19710.3 609.305
8698.43 403.055
6526.28 348.951
857.257 125.045
236.362 65.5554
0 0
0 0
0 0
0 0
0 0
0 0
0 0
0 0
0 0
0 0
0 0
0 0
0 0
0 0
0 0
0 0
0 0
0 0
0 0
0 0
0 0
0 0
0 0
0 0
0 0
0 0
0 0
0 0
0 0
0 0
0 0
0 0
0 0
0 0
0 0
0 0
0 0
0 0
0 0
0 0
0 0
0 0
0 0
0 0
0 0
0 0
0 0
0 0
0 0
0 0
173.605 57.8685
619.692 109.548
5526.06 327.935
10830.4 458.559
31643.5 778.929
53141.8 1007.82
70574.2 1159.51
71773.6 1169.17
71805.9 1169.08
73610.2 1183.64
73070.9 1179.54
71543.8 1166.83
72989.4 1178.24
73749.3 1184.65
71173.4 1163.88
71657.7 1167.44
72510.2 1174.65
74120.6 1187.41
74038.1 1186.7
73266.2 1180.25
72240.4 1171.97
71813.3 1168.88
71240.1 1164.51
73234.9 1180.35
71796.7 1168.77
72973.3 1178.59
72773.5 1176.6
72288.5 1172.75
72934.6 1177.97
72236 1172.66
71835 1168.93
72795 1177.25
73274.8 1180.54
73559.6 1183.13
73555.9 1183.08
71439.9 1165.59
74415 1189.98
70896.6 1161.69
72666.9 1176.09
71328.5 1165.02
72176.9 1171.87
72195.3 1171.85
72397.7 1173.75
73464.1 1182.21
73966.2 1186.46
71956.6 1170.44
73288.9 1180.92
72380.1 1173.62
71163 1163.56
71054.3 1162.72
74469.4 1190.09
73783.3 1185.2
74367.3 1189.52
73811 1184.57
73346.7 1181.09
74105.4 1187.32
73084.4 1179.15
70165.3 1155.62
73103.9 1179.32
74594 1191.17
71897.8 1169.49
75802.3 1200.86
70808.9 1160.72
71290.1 1164.7
72758.8 1176.66
71764.3 1168.72
72397.8 1173.59
71497.8 1165.92
72647.8 1175.95
68183.9 1138.85
55019.6 1021.46
39467.8 862.425
16782.1 557.917
12634.8 484.236
5811.98 326.958
4257.15 279.511
746.517 116.587
36.5263 25.828
0 0
0 0
0 0
0 0
0 0
0 0
0 0
0 0
0 0
0 0
0 0
0 0
0 0
0 0
0 0
0 0
0 0
0 0
0 0
0 0
0 0
0 0
0 0
0 0
0 0
0 0
0 0
0 0
0 0
0 0
0 0
0 0
0 0
0 0
0 0
0 0
0 0
0 0
0 0
0 0
0 0
0 0
0 0
0 0
0 0
0 0
0 0
0 0
0 0
0 0
38.8385 27.463
929.231 134.124
5338.87 322.545
9924.76 439.105
32596.5 790.973
53803.1 1014.35
70140.9 1155.82
72802 1177.05
73696.1 1184.56
71460 1166.08
72962.2 1178.26
71775.1 1168.88
71625.9 1167.23
72120.9 1171.42
72210.3 1171.79
73620.9 1183.36
71518 1166.4
70997.8 1162.26
73030.2 1178.74
73409.7 1181.8
73139.5 1179.28
72358.4 1173.11
71726.5 1167.94
74192.4 1188.09
73121.2 1179.3
72132.4 1171.76
72695.7 1176.26
72865.1 1177.46
72766.2 1176.8
73592.1 1183.5
75061.1 1195.13
72070.2 1171.36
73170.9 1179.94
72325.3 1172.89
72142.3 1171.6
72699.6 1176.17
73568.1 1182.81
72709.8 1176.33
73332.4 1181.46
74722.7 1192.01
72082 1170.63
73608 1183.6
73680.2 1184.15
75231 1196.31
73049.6 1178.75
72094.7 1171.45
73696.4 1183.8
73235.7 1180.52
73858.4 1185.49
74089.5 1187.51
73501.5 1182.36
73510.6 1182.64
72354.8 1173.52
72446.6 1174.23
71979.2 1170.03
70696.7 1159.66
72176.3 1171.7
73338.1 1180.79
72794.4 1176.78
72252.2 1172.62
70678.8 1159.68
75256 1196.27
72225.4 1171.88
72228 1172.23
72765.9 1176.78
74336.5 1188.89
73225.7 1180.37
73998.8 1186.52
73603.8 1182.78
71396.1 1165.5
54149.8 1013.2
39750.8 865.315
15758 539.893
9544.42 419.365
6057.08 333.433
4396.64 283.805
564.158 101.326
54.5542 31.497
0 0
0 0
0 0
0 0
0 0
0 0
0 0
0 0
0 0
0 0
0 0
0 0
0 0
0 0
0 0
0 0
0 0
0 0
0 0
0 0
0 0
0 0
0 0
0 0
0 0
0 0
0 0
0 0
0 0
0 0
0 0
0 0
0 0
0 0
0 0
0 0
0 0
0 0
0 0
0 0
0 0
0 0
0 0
0 0
0 0
0 0
0 0
0 0
0 0
0 0
77.2389 38.6196
755.235 120.935
4851.1 307.436
8507.4 406.551
32183.4 785.822
53109.4 1007.92
68937.7 1145.99
74126.6 1187.34
73645.3 1183.75
73557.8 1182.95
71410.5 1165.73
72095.4 1171.16
73537.1 1183.08
72430.5 1174.59
72018.5 1170.52
74484 1190.48
73908.4 1186.13
72715.4 1176.58
73613 1183.69
71482.2 1166.74
73808.1 1184.99
73969.8 1186.51
71596.3 1166.75
73375.2 1181.54
70276.7 1156.2
70070.2 1154.69
74005.2 1186.47
71478.2 1165.9
71648.5 1167.76
73782.9 1184.73
72796.2 1176.96
71976.9 1170.47
69571.4 1150.38
73281.1 1180.8
71801.9 1168.55
73091.7 1178.82
69799.6 1152.26
74019.5 1186.85
71723.3 1167.74
73373.1 1181.51
73007.5 1178.53
72363.8 1173.35
73427.6 1182.54
72736.1 1176.16
71072.7 1162.71
73596.9 1183.43
73023 1178.33
73740.7 1184.37
71377.8 1165.05
72587.4 1174.97
70556.9 1158.46
73245.9 1180.69
72742.5 1176.71
73040.8 1178.91
72403 1173.98
74183.9 1188.57
71491.1 1166.12
74485.9 1190.21
73376.7 1181.87
72851.8 1176.94
73880.3 1186.13
71682.3 1167.99
73779.4 1185.13
72516.8 1174.6
72677.8 1176.12
73194.1 1180.31
72012.2 1170.57
71992.3 1170.87
69599.2 1150.99
72143.7 1171.18
54225.4 1013.72
37740.9 843.421
15315.9 531.971
9870.6 426.352
5453.72 316.46
3737.62 261.689
363.617 81.3074
36.2911 25.6617
0 0
0 0
0 0
0 0
0 0
0 0
0 0
0 0
0 0
0 0
0 0
0 0
0 0
0 0
0 0
0 0
0 0
0 0
0 0
0 0
0 0
0 0
0 0
0 0
0 0
0 0
0 0
0 0
0 0
0 0
0 0
0 0
0 0
0 0
0 0
0 0
0 0
0 0
0 0
0 0
0 0
0 0
0 0
0 0
0 0
0 0
0 0
0 0
0 0
0 0
0 0
289.828 74.8338
4542.23 297.578
9719.07 434.706
32996.2 796.213
55729.8 1032.48
71348.9 1165.81
73210.2 1180.41
71618.8 1166.96
73773.9 1184.59
75609.7 1199.75
71169.6 1164.29
74482.7 1190.46
70066.8 1154.93
71638.4 1167.14
72166 1172.14
73417.6 1181.3
73522.7 1182.24
75190.4 1195.97
71697.5 1167.78
72541.5 1175
70703.8 1159.62
73182 1179.96
72008.3 1170.52
72794.1 1177.09
71677.4 1167.45
73532.3 1183
73015.9 1178.52
72351.8 1173.16
72919.6 1178.19
71463 1166.13
72713.7 1176.24
74305.5 1188.7
71547.5 1166.88
72795.2 1176.8
71882.6 1169.4
71191.9 1163.87
72505.7 1174.57
72784 1176.46
72387.9 1173.58
76165.4 1203.44
74010 1186.84
72604.9 1174.94
75591.8 1199.03
74102.2 1187.57
72252.2 1172.01
73423.5 1182.01
73273.3 1180.51
75751.6 1200.36
71920.1 1170
73363 1181.35
72604.5 1174.95
72588.1 1175.29
73870.2 1185.52
73062.7 1179.27
73179.9 1180.09
71060.6 1162.66
74347.1 1189.36
72719.2 1176.02
69890.9 1152.66
75086.9 1195.54
74336 1189.48
74226.6 1188.64
73407.9 1181.92
73203.9 1180.17
73273.8 1180.52
74255.9 1188.5
74602.5 1191.45
72451 1173.84
71751.5 1168.36
57633.2 1045.24
38220.7 848.226
15349.7 532.499
10450.2 438.484
5197.46 308.959
4025.95 271.433
272.418 70.3382
0 0
0 0
0 0
0 0
0 0
0 0
0 0
0 0
0 0
0 0
0 0
0 0
0 0
0 0
0 0
0 0
0 0
0 0
0 0
0 0
0 0
0 0
0 0
0 0
0 0
0 0
0 0
0 0
0 0
0 0
0 0
0 0
0 0
0 0
0 0
0 0
0 0
0 0
0 0
0 0
0 0
0 0
0 0
0 0
0 0
0 0
0 0
0 0
0 0
0 0
0 0
0 0
231.571 66.8489
4657.06 301.249
8523.49 407.743
32847 794.235
52906.2 1005.87
72009.4 1171.13
69227.8 1147.83
71157.1 1162.84
71748 1168.14
73246.8 1180.24
75154.1 1195.69
72059.1 1171.18
72895 1177.79
72400.6 1173.64
73624.7 1183.41
71077.1 1163.09
74544.9 1190.85
74048.4 1187.01
69002.2 1145.82
72815.7 1177.12
71792.5 1168.86
71708.4 1168.27
75091.5 1195.47
70464.1 1157.56
73148.4 1179.87
73241.8 1180.47
73785.5 1184.93
73588.1 1183.28
73263.5 1180.67
74314.3 1188.83
72308.4 1173.07
74714.8 1192.49
73171.3 1180.25
69951.7 1153.51
73460.8 1182.01
70785 1160.63
74774.8 1192.84
73294.1 1180.7
73156.2 1179.7
72627.8 1175.78
74504.6 1190.35
73807.9 1184.99
73308.8 1180.94
72288.7 1172.59
73283.5 1180.53
74001.3 1186.56
73646.8 1183.77
70891.6 1161.29
73253.1 1180.5
73386.1 1181.42
73091.7 1179.43
73731.6 1184.67
72995.9 1178.65
71259.2 1164.51
72784 1176.62
73305.1 1180.88
72142.4 1171.3
74205.4 1188.15
74154.7 1187.65
68874.6 1144.49
70852 1160.64
74052.4 1187.38
72637 1175.92
71724.5 1167.76
72863.8 1177.44
71008.6 1162.58
71654.3 1167.23
72594.8 1174.94
71752.3 1168.36
55077.3 1022.01
37489.6 840.324
14841.3 523.425
10880.1 447.553
5749.51 324.984
3662.55 258.985
72.5822 36.2911
0 0
0 0
0 0
0 0
0 0
0 0
0 0
0 0
0 0
0 0
0 0
0 0
0 0
0 0
0 0
0 0
0 0
0 0
0 0
0 0
0 0
0 0
0 0
0 0
0 0
0 0
0 0
0 0
0 0
0 0
0 0
0 0
0 0
0 0
0 0
0 0
0 0
0 0
0 0
0 0
0 0
0 0
0 0
0 0
0 0
0 0
0 0
0 0
0 0
0 0
0 0
0 0
38.5464 27.2564
4031.92 280.243
8774.06 413.626
32533.8 790.823
53886.4 1015.2
72760 1176.52
70986 1162.37
73431.1 1181.83
72450.5 1174.3
73942.3 1186.08
72448.2 1174.11
72657.6 1175.49
74041.9 1186.75
71417.3 1165.84
73814.8 1184.8