# vtk DataFile Version 2.0
absorber
ASCII
DATASET POLYDATA
POINTS 4225 float
-0.121094 1.500000 -0.121094
-0.125000 1.500000 -0.125000
-0.121094 1.500000 -0.125000
-0.125000 1.500000 -0.121094
-0.121094 1.500000 -0.117188
-0.125000 1.500000 -0.117188
-0.121094 1.500000 -0.113281
-0.125000 1.500000 -0.113281
-0.121094 1.500000 -0.109375
-0.125000 1.500000 -0.109375
-0.121094 1.500000 -0.105469
-0.125000 1.500000 -0.105469
-0.121094 1.500000 -0.101562
-0.125000 1.500000 -0.101562
-0.121094 1.500000 -0.097656
-0.125000 1.500000 -0.097656
-0.121094 1.500000 -0.093750
-0.125000 1.500000 -0.093750
-0.121094 1.500000 -0.089844
-0.125000 1.500000 -0.089844
-0.121094 1.500000 -0.085938
-0.125000 1.500000 -0.085938
-0.121094 1.500000 -0.082031
-0.125000 1.500000 -0.082031
-0.121094 1.500000 -0.078125
-0.125000 1.500000 -0.078125
-0.121094 1.500000 -0.074219
-0.125000 1.500000 -0.074219
-0.121094 1.500000 -0.070312
-0.125000 1.500000 -0.070312
-0.121094 1.500000 -0.066406
-0.125000 1.500000 -0.066406
-0.121094 1.500000 -0.062500
-0.125000 1.500000 -0.062500
-0.121094 1.500000 -0.058594
-0.125000 1.500000 -0.058594
-0.121094 1.500000 -0.054688
-0.125000 1.500000 -0.054688
-0.121094 1.500000 -0.050781
-0.125000 1.500000 -0.050781
-0.121094 1.500000 -0.046875
-0.125000 1.500000 -0.046875
-0.121094 1.500000 -0.042969
-0.125000 1.500000 -0.042969
-0.121094 1.500000 -0.039062
-0.125000 1.500000 -0.039062
-0.121094 1.500000 -0.035156
-0.125000 1.500000 -0.035156
-0.121094 1.500000 -0.031250
-0.125000 1.500000 -0.031250
-0.121094 1.500000 -0.027344
-0.125000 1.500000 -0.027344
-0.121094 1.500000 -0.023438
-0.125000 1.500000 -0.023438
-0.121094 1.500000 -0.019531
-0.125000 1.500000 -0.019531
-0.121094 1.500000 -0.015625
-0.125000 1.500000 -0.015625
-0.121094 1.500000 -0.011719
-0.125000 1.500000 -0.011719
-0.121094 1.500000 -0.007812
-0.125000 1.500000 -0.007812
-0.121094 1.500000 -0.003906
-0.125000 1.500000 -0.003906
-0.121094 1.500000 0.000000
-0.125000 1.500000 0.000000
-0.121094 1.500000 0.003906
-0.125000 1.500000 0.003906
-0.121094 1.500000 0.007812
-0.125000 1.500000 0.007812
-0.121094 1.500000 0.011719
-0.125000 1.500000 0.011719
-0.121094 1.500000 0.015625
-0.125000 1.500000 0.015625
-0.121094 1.500000 0.019531
-0.125000 1.500000 0.019531
-0.121094 1.500000 0.023438
-0.125000 1.500000 0.023438
-0.121094 1.500000 0.027344
-0.125000 1.500000 0.027344
-0.121094 1.500000 0.031250
-0.125000 1.500000 0.031250
-0.121094 1.500000 0.035156
-0.125000 1.500000 0.035156
-0.121094 1.500000 0.039062
-0.125000 1.500000 0.039062
-0.121094 1.500000 0.042969
-0.125000 1.500000 0.042969
-0.121094 1.500000 0.046875
-0.125000 1.500000 0.046875
-0.121094 1.500000 0.050781
-0.125000 1.500000 0.050781
-0.121094 1.500000 0.054688
-0.125000 1.500000 0.054688
-0.121094 1.500000 0.058594
-0.125000 1.500000 0.058594
-0.121094 1.500000 0.062500
-0.125000 1.500000 0.062500
-0.121094 1.500000 0.066406
-0.125000 1.500000 0.066406
-0.121094 1.500000 0.070312
-0.125000 1.500000 0.070312
-0.121094 1.500000 0.074219
-0.125000 1.500000 0.074219
-0.121094 1.500000 0.078125
-0.125000 1.500000 0.078125
-0.121094 1.500000 0.082031
-0.125000 1.500000 0.082031
-0.121094 1.500000 0.085938
-0.125000 1.500000 0.085938
-0.121094 1.500000 0.089844
-0.125000 1.500000 0.089844
-0.121094 1.500000 0.093750
-0.125000 1.500000 0.093750
-0.121094 1.500000 0.097656
-0.125000 1.500000 0.097656
-0.121094 1.500000 0.101562
-0.125000 1.500000 0.101562
-0.121094 1.500000 0.105469
-0.125000 1.500000 0.105469
-0.121094 1.500000 0.109375
-0.125000 1.500000 0.109375
-0.121094 1.500000 0.113281
-0.125000 1.500000 0.113281
-0.121094 1.500000 0.117188
-0.125000 1.500000 0.117188
-0.121094 1.500000 0.121094
-0.125000 1.500000 0.121094
-0.121094 1.500000 0.125000
-0.125000 1.500000 0.125000
-0.117188 1.500000 -0.121094
-0.117188 1.500000 -0.125000
-0.117188 1.500000 -0.117188
-0.117188 1.500000 -0.113281
-0.117188 1.500000 -0.109375
-0.117188 1.500000 -0.105469
-0.117188 1.500000 -0.101562
-0.117188 1.500000 -0.097656
-0.117188 1.500000 -0.093750
-0.117188 1.500000 -0.089844
-0.117188 1.500000 -0.085938
-0.117188 1.500000 -0.082031
-0.117188 1.500000 -0.078125
-0.117188 1.500000 -0.074219
-0.117188 1.500000 -0.070312
-0.117188 1.500000 -0.066406
-0.117188 1.500000 -0.062500
-0.117188 1.500000 -0.058594
-0.117188 1.500000 -0.054688
-0.117188 1.500000 -0.050781
-0.117188 1.500000 -0.046875
-0.117188 1.500000 -0.042969
-0.117188 1.500000 -0.039062
-0.117188 1.500000 -0.035156
-0.117188 1.500000 -0.031250
-0.117188 1.500000 -0.027344
-0.117188 1.500000 -0.023438
-0.117188 1.500000 -0.019531
-0.117188 1.500000 -0.015625
-0.117188 1.500000 -0.011719
-0.117188 1.500000 -0.007812
-0.117188 1.500000 -0.003906
-0.117188 1.500000 0.000000
-0.117188 1.500000 0.003906
-0.117188 1.500000 0.007812
-0.117188 1.500000 0.011719
-0.117188 1.500000 0.015625
-0.117188 1.500000 0.019531
-0.117188 1.500000 0.023438
-0.117188 1.500000 0.027344
-0.117188 1.500000 0.031250
-0.117188 1.500000 0.035156
-0.117188 1.500000 0.039062
-0.117188 1.500000 0.042969
-0.117188 1.500000 0.046875
-0.117188 1.500000 0.050781
-0.117188 1.500000 0.054688
-0.117188 1.500000 0.058594
-0.117188 1.500000 0.062500
-0.117188 1.500000 0.066406
-0.117188 1.500000 0.070312
-0.117188 1.500000 0.074219
-0.117188 1.500000 0.078125
-0.117188 1.500000 0.082031
-0.117188 1.500000 0.085938
-0.117188 1.500000 0.089844
-0.117188 1.500000 0.093750
-0.117188 1.500000 0.097656
-0.117188 1.500000 0.101562
-0.117188 1.500000 0.105469
-0.117188 1.500000 0.109375
-0.117188 1.500000 0.113281
-0.117188 1.500000 0.117188
-0.117188 1.500000 0.121094
-0.117188 1.500000 0.125000
-0.113281 1.500000 -0.121094
-0.113281 1.500000 -0.125000
-0.113281 1.500000 -0.117188
-0.113281 1.500000 -0.113281
-0.113281 1.500000 -0.109375
-0.113281 1.500000 -0.105469
-0.113281 1.500000 -0.101562
-0.113281 1.500000 -0.097656
-0.113281 1.500000 -0.093750
-0.113281 1.500000 -0.089844
-0.113281 1.500000 -0.085938
-0.113281 1.500000 -0.082031
-0.113281 1.500000 -0.078125
-0.113281 1.500000 -0.074219
-0.113281 1.500000 -0.070312
-0.113281 1.500000 -0.066406
-0.113281 1.500000 -0.062500
-0.113281 1.500000 -0.058594
-0.113281 1.500000 -0.054688
-0.113281 1.500000 -0.050781
-0.113281 1.500000 -0.046875
-0.113281 1.500000 -0.042969
-0.113281 1.500000 -0.039062
-0.113281 1.500000 -0.035156
-0.113281 1.500000 -0.031250
-0.113281 1.500000 -0.027344
-0.113281 1.500000 -0.023438
-0.113281 1.500000 -0.019531
-0.113281 1.500000 -0.015625
-0.113281 1.500000 -0.011719
-0.113281 1.500000 -0.007812
-0.113281 1.500000 -0.003906
-0.113281 1.500000 0.000000
-0.113281 1.500000 0.003906
-0.113281 1.500000 0.007812
-0.113281 1.500000 0.011719
-0.113281 1.500000 0.015625
-0.113281 1.500000 0.019531
-0.113281 1.500000 0.023438
-0.113281 1.500000 0.027344
-0.113281 1.500000 0.031250
-0.113281 1.500000 0.035156
-0.113281 1.500000 0.039062
-0.113281 1.500000 0.042969
-0.113281 1.500000 0.046875
-0.113281 1.500000 0.050781
-0.113281 1.500000 0.054688
-0.113281 1.500000 0.058594
-0.113281 1.500000 0.062500
-0.113281 1.500000 0.066406
-0.113281 1.500000 0.070312
-0.113281 1.500000 0.074219
-0.113281 1.500000 0.078125
-0.113281 1.500000 0.082031
-0.113281 1.500000 0.085938
-0.113281 1.500000 0.089844
-0.113281 1.500000 0.093750
-0.113281 1.500000 0.097656
-0.113281 1.500000 0.101562
-0.113281 1.500000 0.105469
-0.113281 1.500000 0.109375
-0.113281 1.500000 0.113281
-0.113281 1.500000 0.117188
-0.113281 1.500000 0.121094
-0.113281 1.500000 0.125000
-0.109375 1.500000 -0.121094
-0.109375 1.500000 -0.125000
-0.109375 1.500000 -0.117188
-0.109375 1.500000 -0.113281
-0.109375 1.500000 -0.109375
-0.109375 1.500000 -0.105469
-0.109375 1.500000 -0.101562
-0.109375 1.500000 -0.097656
-0.109375 1.500000 -0.093750
-0.109375 1.500000 -0.089844
-0.109375 1.500000 -0.085938
-0.109375 1.500000 -0.082031
-0.109375 1.500000 -0.078125
-0.109375 1.500000 -0.074219
-0.109375 1.500000 -0.070312
-0.109375 1.500000 -0.066406
-0.109375 1.500000 -0.062500
-0.109375 1.500000 -0.058594
-0.109375 1.500000 -0.054688
-0.109375 1.500000 -0.050781
-0.109375 1.500000 -0.046875
-0.109375 1.500000 -0.042969
-0.109375 1.500000 -0.039062
-0.109375 1.500000 -0.035156
-0.109375 1.500000 -0.031250
-0.109375 1.500000 -0.027344
-0.109375 1.500000 -0.023438
-0.109375 1.500000 -0.019531
-0.109375 1.500000 -0.015625
-0.109375 1.500000 -0.011719
-0.109375 1.500000 -0.007812
-0.109375 1.500000 -0.003906
-0.109375 1.500000 0.000000
-0.109375 1.500000 0.003906
-0.109375 1.500000 0.007812
-0.109375 1.500000 0.011719
-0.109375 1.500000 0.015625
-0.109375 1.500000 0.019531
-0.109375 1.500000 0.023438
-0.109375 1.500000 0.027344
-0.109375 1.500000 0.031250
-0.109375 1.500000 0.035156
-0.109375 1.500000 0.039062
-0.109375 1.500000 0.042969
-0.109375 1.500000 0.046875
-0.109375 1.500000 0.050781
-0.109375 1.500000 0.054688
-0.109375 1.500000 0.058594
-0.109375 1.500000 0.062500
-0.109375 1.500000 0.066406
-0.109375 1.500000 0.070312
-0.109375 1.500000 0.074219
-0.109375 1.500000 0.078125
-0.109375 1.500000 0.082031
-0.109375 1.500000 0.085938
-0.109375 1.500000 0.089844
-0.109375 1.500000 0.093750
-0.109375 1.500000 0.097656
-0.109375 1.500000 0.101562
-0.109375 1.500000 0.105469
-0.109375 1.500000 0.109375
-0.109375 1.500000 0.113281
-0.109375 1.500000 0.117188
-0.109375 1.500000 0.121094
-0.109375 1.500000 0.125000
-0.105469 1.500000 -0.121094
-0.105469 1.500000 -0.125000
-0.105469 1.500000 -0.117188
-0.105469 1.500000 -0.113281
-0.105469 1.500000 -0.109375
-0.105469 1.500000 -0.105469
-0.105469 1.500000 -0.101562
-0.105469 1.500000 -0.097656
-0.105469 1.500000 -0.093750
-0.105469 1.500000 -0.089844
-0.105469 1.500000 -0.085938
-0.105469 1.500000 -0.082031
-0.105469 1.500000 -0.078125
-0.105469 1.500000 -0.074219
-0.105469 1.500000 -0.070312
-0.105469 1.500000 -0.066406
-0.105469 1.500000 -0.062500
-0.105469 1.500000 -0.058594
-0.105469 1.500000 -0.054688
-0.105469 1.500000 -0.050781
-0.105469 1.500000 -0.046875
-0.105469 1.500000 -0.042969
[...]
CELL_DATA 8192
SCALARS Front_faces_Incoming_flux double 2
LOOKUP_TABLE default
0 0
0 0
0 0
0 0
0 0
0 0
0 0
0 0
0 0
0 0
0 0
0 0
0 0
0 0
0 0
0 0
0 0
0 0
0 0
0 0
0 0
0 0
0 0
0 0
0 0
0 0
0 0
0 0
0 0
0 0
0 0
0 0
0 0
0 0
0 0
0 0
0 0
0 0
0 0
0 0
0 0
0 0
0 0
0 0
0 0
0 0
0 0
0 0
0 0
0 0
0 0
0 0
0 0
0 0
0 0
0 0
0 0
0 0
0 0
0 0
0 0
0 0
0 0
0 0
0 0
0 0
0 0
0 0
0 0
0 0
0 0
0 0
0 0
0 0
0 0
0 0
0 0
0 0
0 0
0 0
0 0
0 0
0 0
0 0
0 0
0 0
0 0
0 0
0 0
0 0
0 0
0 0
0 0
0 0
0 0
0 0
0 0
0 0
0 0
0 0
0 0
0 0
0 0
0 0
0 0
0 0
0 0
0 0
0 0
0 0
0 0
0 0
0 0
0 0
0 0
0 0
0 0
0 0
0 0
0 0
0 0
0 0
0 0
0 0
0 0
0 0
0 0
0 0
0 0
0 0
0 0
0 0
0 0
0 0
0 0
0 0
0 0
0 0
0 0
0 0
0 0
0 0
0 0
0 0
0 0
0 0
0 0
0 0
0 0
0 0
0 0
0 0
0 0
0 0
0 0
0 0
0 0
0 0
0 0
0 0
0 0
0 0
0 0
0 0
0 0
0 0
0 0
0 0
0 0
0 0
0 0
0 0
0 0
0 0
0 0
0 0
0 0
0 0
0 0
0 0
0 0
0 0
0 0
0 0
0 0
0 0
0 0
0 0
0 0
0 0
0 0
0 0
0 0
0 0
0 0
0 0
0 0
0 0
0 0
0 0
0 0
0 0
0 0
0 0
0 0
0 0
0 0
0 0
0 0
0 0
0 0
0 0
0 0
0 0
0 0
0 0
0 0
0 0
0 0
0 0
0 0
0 0
0 0
0 0
0 0
0 0
0 0
0 0
0 0
0 0
0 0
0 0
0 0
0 0
0 0
0 0
0 0
0 0
0 0
0 0
0 0
0 0
0 0
0 0
0 0
0 0
0 0
0 0
0 0
0 0
0 0
0 0
0 0
0 0
0 0
0 0
0 0
0 0
0 0
0 0
0 0
0 0
0 0
0 0
0 0
0 0
0 0
0 0
0 0
0 0
0 0
0 0
0 0
0 0
0 0
0 0
0 0
0 0
0 0
0 0
0 0
0 0
0 0
0 0
0 0
0 0
0 0
0 0
0 0
0 0
0 0
0 0
0 0
0 0
0 0
0 0
0 0
0 0
0 0
0 0
0 0
0 0
0 0
0 0
0 0
0 0
0 0
0 0
0 0
0 0
0 0
0 0
0 0
0 0
0 0
0 0
0 0
0 0
0 0
0 0
0 0
0 0
0 0
0 0
0 0
0 0
0 0
0 0
0 0
0 0
0 0
0 0
0 0
0 0
0 0
0 0
0 0
0 0
0 0
0 0
0 0
0 0
0 0
0 0
0 0
0 0
0 0
0 0
0 0
0 0
0 0
0 0
0 0
0 0
0 0
0 0
0 0
0 0
0 0
0 0
0 0
0 0
0 0
0 0
0 0
0 0
0 0
0 0
0 0
0 0
0 0
0 0
0 0
0 0
0 0
0 0
0 0
0 0
0 0
0 0
0 0
0 0
0 0
0 0
0 0
0 0
0 0
0 0
0 0
0 0
0 0
0 0
0 0
0 0
0 0
0 0
0 0
0 0
0 0
0 0
0 0
0 0
0 0
0 0
0 0
0 0
0 0
0 0
0 0
0 0
0 0
0 0
0 0
0 0
0 0
0 0
0 0
0 0
0 0
0 0
0 0
0 0
0 0
0 0
0 0
0 0
0 0
0 0
0 0
0 0
0 0
0 0
0 0
0 0
0 0
0 0
0 0
0 0
0 0
0 0
0 0
0 0
0 0
0 0
0 0
0 0
0 0
0 0
0 0
0 0
0 0
0 0
0 0
0 0
0 0
0 0
0 0
0 0
0 0
0 0
0 0
0 0
0 0
0 0
0 0
0 0
0 0
0 0
0 0
0 0
0 0
0 0
0 0
0 0
0 0
0 0
0 0
0 0
0 0
0 0
0 0
0 0
0 0
0 0
0 0
0 0
0 0
0 0
0 0
0 0
0 0
0 0
0 0
0 0
0 0
0 0
0 0
0 0
0 0
0 0
0 0
0 0
0 0
0 0
0 0
0 0
0 0
0 0
0 0
0 0
0 0
0 0
0 0
0 0
0 0
0 0
0 0
0 0
0 0
0 0
0 0
0 0
0 0
0 0
0 0
0 0
0 0
0 0
0 0
0 0
0 0
0 0
0 0
0 0
0 0
0 0
0 0
0 0
0 0
0 0
0 0
0 0
0 0
0 0
0 0
0 0
0 0
0 0
0 0
0 0
0 0
0 0
0 0
0 0
0 0
0 0
0 0
0 0
0 0
0 0
0 0
0 0
0 0
0 0
0 0
0 0
0 0
0 0
0 0
0 0
0 0
0 0
0 0
0 0
0 0
0 0
0 0
0 0
0 0
0 0
0 0
0 0
0 0
0 0
0 0
0 0
0 0
0 0
0 0
0 0
0 0
0 0
0 0
0 0
0 0
0 0
0 0
0 0
0 0
0 0
0 0
0 0
0 0
0 0
0 0
0 0
0 0
0 0
0 0
0 0
0 0
0 0
0 0
0 0
0 0
0 0
0 0
0 0
0 0
0 0
0 0
0 0
0 0
0 0
0 0
0 0
0 0
0 0
0 0
0 0
0 0
0 0
0 0
0 0
0 0
0 0
0 0
0 0
0 0
0 0
0 0
0 0
0 0
0 0
0 0
0 0
0 0
0 0
0 0
0 0
0 0
0 0
0 0
0 0
0 0
0 0
0 0
0 0
0 0
0 0
0 0
0 0
0 0
0 0
0 0
0 0
0 0
0 0
0 0
0 0
0 0
0 0
0 0
0 0
0 0
0 0
0 0
0 0
0 0
0 0
0 0
0 0
0 0
0 0
0 0
0 0
0 0
0 0
0 0
0 0
0 0
0 0
0 0
0 0
0 0
0 0
0 0
0 0
0 0
0 0
0 0
0 0
0 0
0 0
0 0
0 0
0 0
0 0
0 0
0 0
0 0
0 0
0 0
0 0
0 0
0 0
0 0
0 0
0 0
0 0
0 0
0 0
0 0
0 0
0 0
0 0
0 0
0 0
0 0
0 0
0 0
0 0
0 0
0 0
0 0
0 0
0 0
0 0
0 0
0 0
0 0
0 0
0 0
0 0
0 0
0 0
0 0
0 0
0 0
0 0
0 0
0 0
0 0
0 0
0 0
0 0
0 0
0 0
0 0
0 0
0 0
0 0
0 0
0 0
0 0
0 0
0 0
0 0
0 0
0 0
0 0
0 0
0 0
0 0
0 0
0 0
0 0
0 0
0 0
0 0
0 0
0 0
0 0
0 0
0 0
0 0
0 0
0 0
0 0
0 0
0 0
0 0
0 0
0 0
0 0
0 0
0 0
0 0
0 0
0 0
0 0
0 0
0 0
0 0
0 0
0 0
0 0
0 0
0 0
0 0
0 0
0 0
0 0
0 0
0 0
0 0
0 0
0 0
0 0
0 0
0 0
0 0
0 0
0 0
0 0
0 0
0 0
0 0
0 0
0 0
0 0
0 0
0 0
0 0
0 0
0 0
0 0
0 0
0 0
0 0
0 0
0 0
0 0
0 0
0 0
0 0
0 0
0 0
0 0
0 0
0 0
0 0
0 0
0 0
0 0
0 0
0 0
0 0
0 0
0 0
0 0
0 0
0 0
0 0
0 0
0 0
0 0
0 0
0 0
0 0
0 0
0 0
0 0
0 0
0 0
0 0
0 0
0 0
0 0
0 0
0 0
0 0
0 0
0 0
0 0
0 0
0 0
0 0
0 0
0 0
0 0
0 0
0 0
0 0
0 0
0 0
0 0
0 0
0 0
0 0
0 0
0 0
0 0
0 0
0 0
0 0
0 0
0 0
0 0
0 0
0 0
0 0
0 0
0 0
0 0
0 0
0 0
0 0
0 0
0 0
0 0
0 0
0 0
0 0
0 0
0 0
0 0
0 0
0 0
0 0
0 0
0 0
0 0
0 0
0 0
0 0
0 0
0 0
0 0
0 0
0 0
0 0
0 0
0 0
0 0
0 0
0 0
0 0
0 0
0 0
0 0
0 0
0 0
0 0
0 0
0 0
0 0
0 0
0 0
0 0
0 0
0 0
0 0
0 0
0 0
0 0
0 0
0 0
0 0
0 0
0 0
0 0
0 0
0 0
0 0
0 0
0 0
0 0
0 0
0 0
0 0
0 0
0 0
0 0
0 0
0 0
0 0
0 0
0 0
0 0
0 0
0 0
0 0
0 0
0 0
0 0
0 0
0 0
0 0
0 0
0 0
0 0
0 0
0 0
0 0
0 0
0 0
0 0
0 0
0 0
0 0
0 0
0 0
0 0
0 0
0 0
0 0
0 0
0 0
0 0
0 0
0 0
0 0
0 0
0 0
0 0
0 0
0 0
0 0
0 0
0 0
0 0
0 0
0 0
0 0
0 0
0 0
0 0
0 0
0 0
0 0
0 0
0 0
0 0
0 0
0 0
0 0
0 0
0 0
0 0
0 0
0 0
0 0
0 0
0 0
0 0
0 0
0 0
0 0
0 0
0 0
0 0
0 0
0 0
0 0
0 0
0 0
0 0
0 0
0 0
0 0
0 0
0 0
0 0
0 0
0 0
0 0
0 0
0 0
0 0
0 0
0 0
0 0
0 0
0 0
0 0
0 0
0 0
0 0
0 0
0 0
0 0
0 0
0 0
0 0
0 0
0 0
0 0
0 0
0 0
0 0
0 0
0 0
0 0
0 0
0 0
0 0
0 0
0 0
0 0
0 0
0 0
0 0
0 0
0 0
0 0
0 0
0 0
0 0
0 0
0 0
0 0
0 0
0 0
0 0
0 0
0 0
0 0
0 0
0 0
0 0
0 0
0 0
0 0
0 0
0 0
0 0
0 0
0 0
0 0
0 0
0 0
0 0
0 0
0 0
0 0
0 0
0 0
0 0
0 0
0 0
0 0
0 0
0 0
0 0
0 0
0 0
0 0
0 0
0 0
0 0
0 0
0 0
0 0
0 0
0 0
0 0
0 0
0 0
0 0
0 0
0 0
0 0
0 0
0 0
0 0
0 0
0 0
0 0
0 0
0 0
0 0
0 0
0 0
0 0
0 0
0 0
0 0
0 0
0 0
0 0
0 0
0 0
0 0
0 0
0 0
0 0
0 0
0 0
0 0
0 0
0 0
0 0
0 0
0 0
0 0
0 0
0 0
0 0
0 0
0 0
0 0
0 0
0 0
0 0
0 0
0 0
0 0
0 0
0 0
0 0
0 0
0 0
0 0
0 0
0 0
0 0
0 0
0 0
0 0
0 0
0 0
0 0
0 0
0 0
0 0
0 0
0 0
0 0
0 0
0 0
0 0
0 0
0 0
0 0
0 0
0 0
0 0
0 0
0 0
0 0
0 0
0 0
0 0
0 0
0 0
0 0
0 0
0 0
0 0
0 0
0 0
0 0
0 0
0 0
0 0
0 0
0 0
0 0
0 0
0 0
0 0
0 0
0 0
0 0
0 0
0 0
0 0
0 0
0 0
0 0
0 0
0 0
0 0
0 0
0 0
0 0
0 0
0 0
0 0
0 0
0 0
0 0
0 0
0 0
0 0
0 0
0 0
0 0
0 0
0 0
0 0
0 0
0 0
0 0
0 0
0 0
0 0
0 0
0 0
0 0
0 0
0 0
0 0
0 0
0 0
0 0
0 0
0 0
0 0
0 0
0 0
0 0
0 0
0 0
0 0
0 0
0 0
0 0
0 0
0 0
0 0
0 0
0 0
0 0
0 0
0 0
0 0
0 0
0 0
0 0
0 0
0 0
0 0
0 0
0 0
0 0
0 0
0 0
0 0
0 0
0 0
0 0
0 0
0 0
0 0
0 0
0 0
0 0
0 0
0 0
0 0
0 0
0 0
0 0
0 0
0 0
0 0
0 0
0 0
0 0
0 0
0 0
0 0
0 0
0 0
0 0
0 0
0 0
0 0
0 0
0 0
0 0
0 0
0 0
0 0
0 0
0 0
0 0
0 0
0 0
0 0
0 0
0 0
0 0
0 0
0 0
0 0
0 0
0 0
0 0
0 0
0 0
0 0
0 0
0 0
0 0
0 0
0 0
0 0
0 0
0 0
0 0
0 0
0 0
0 0
0 0
0 0
0 0
0 0
0 0
0 0
0 0
0 0
0 0
0 0
0 0
0 0
0 0
0 0
0 0
0 0
0 0
0 0
0 0
0 0
0 0
0 0
0 0
0 0
0 0
0 0
0 0
0 0
0 0
0 0
0 0
0 0
0 0
0 0
0 0
0 0
0 0
0 0
0 0
0 0
0 0
0 0
0 0
0 0
0 0
0 0
0 0
0 0
0 0
0 0
0 0
0 0
0 0
0 0
0 0
0 0
0 0
0 0
0 0
0 0
0 0
0 0
0 0
0 0
0 0
0 0
0 0
0 0
0 0
0 0
0 0
0 0
0 0
0 0
0 0
0 0
0 0
0 0
0 0
0 0
0 0
0 0
0 0
0 0
0 0
0 0
0 0
0 0
0 0
0 0
0 0
0 0
0 0
0 0
0 0
0 0
0 0
0 0
0 0
0 0
0 0
0 0
0 0
0 0
0 0
0 0
0 0
0 0
0 0
0 0
0 0
0 0
0 0
0 0
0 0
0 0
0 0
0 0
0 0
0 0
0 0
0 0
0 0
0 0
0 0
0 0
0 0
0 0
0 0
0 0
0 0
0 0
0 0
0 0
0 0
0 0
0 0
0 0
0 0
0 0
0 0
0 0
0 0
0 0
230.595 66.5675
537.147 101.511
2078.96 200.048
1403.63 164.282
3813.65 271.023
1577.01 174.151
3198.85 248.278
1115.77 146.508
3698.94 266.947
1096.45 145.229
2927.32 237.436
999.65 138.627
2773.06 231.088
1019.77 140.077
3252.71 250.207
884.672 130.438
3041.91 242.001
654.018 112.163
3061.67 242.805
845.903 127.525
3139.14 245.875
788.895 123.205
2849.95 234.263
807.446 124.592
3002.98 240.43
615.702 108.842
3175.6 247.219
749.92 120.084
2676.04 226.978
539.097 101.88
2984.71 239.736
731.691 118.696
2964.37 238.875
576.932 105.333
3003.73 240.49
558.4 103.693
3368.77 254.654
404.104 88.1829
2847.95 234.1
481.195 96.2392
3156.97 246.517
384.517 85.9808
2733.28 229.371
500.159 98.0895
2944.28 238.03
654.037 112.167
3002.06 240.356
480.819 96.1641
3445.29 257.512
654.969 112.326
2945.82 238.154
654.511 112.248
2368.03 213.518
615.307 108.772
2656.3 226.119
654.527 112.251
3464.9 258.257
654.063 112.171
2829.47 233.37
635.1 110.557
2888.04 235.807
654.576 112.259
2541.42 221.202
1058.33 142.706
3351.69 254.09
980.366 137.279
3196.07 248.063
1038.32 141.297
3407.04 256.088
1057.57 142.603
3312.71 252.591
1153.88 148.965
3677.62 266.102
1115.97 146.534
4140.08 282.35
1846.37 188.445
2906.07 236.492
997.691 138.355
883.169 130.217
76.6482 38.3241
0 0
0 0
0 0
0 0
0 0
0 0
0 0
0 0
0 0
0 0
0 0
0 0
0 0
0 0
0 0
0 0
0 0
0 0
0 0
0 0
0 0
0 0
0 0
0 0
0 0
0 0
0 0
0 0
0 0
0 0
0 0
0 0
0 0
0 0
0 0
0 0
0 0
0 0
0 0
0 0
0 0
0 0
0 0
0 0
0 0
0 0
0 0
0 0
134.586 50.8695
1404.51 164.387
5545.12 327.895
6078.16 343.013
19469.9 615.371
12899.3 499.833
21671.4 648.699
11688.7 475.601
20903.3 637.234
12195 485.854
22265.5 657.7
12187.3 485.551
21680.2 648.962
11995.5 481.747
21832.7 651.197
12203.9 485.825
22362.2 658.835
11876.3 479.281
21978.6 653.227
12169.7 485.234
22001.5 653.621
12824.9 498.073
21521.1 646.524
12872.3 498.786
23057.3 669.223
12473.2 491.124
22268.1 657.491
11484 471.187
20630.6 633.053
11952.4 480.791
20848.9 636.167
11578.8 473.091
21283.3 642.869
12707.8 495.773
21376.5 644.215
11933.5 480.418
21164.8 641.046
11909.7 479.849
20461 630.524
11755.4 476.739
21557.5 647.031
12584.9 493.234
22017.7 653.814
11699.3 475.639
20166.9 625.936
11172.5 464.711
21870.4 651.743
11678.3 475.176
22635.9 663.166
11120.6 463.759
21662.1 648.712
12091.3 483.647
22002.5 653.65
12955.2 500.495
21815.1 650.963
12919.9 499.878
21627.7 647.971
12725.9 496.102
20894.2 636.956
12129.1 484.383
20786.7 635.451
12435.4 490.4
21796 650.681
12669.2 495.022
23267.6 672.217
12187.7 485.563
20862.5 636.581
11374.9 469.088
22079.3 654.776
12226.7 486.348
21575.4 647.278
12540.2 492.619
22298.7 658.108
12252.3 486.98
20876.1 636.996
10938.2 460.171
8495.59 405.936
3726.4 268.233
1193.32 151.553
191.763 60.6411
0 0
0 0
0 0
0 0
0 0
0 0
0 0
0 0
0 0
0 0
0 0
0 0
0 0
0 0
0 0
0 0
0 0
0 0
0 0
0 0
0 0
0 0
0 0
0 0
0 0
0 0
0 0
0 0
0 0
0 0
0 0
0 0
0 0
0 0
0 0
0 0
0 0
0 0
0 0
0 0
0 0
0 0
0 0
0 0
0 0
0 0
0 0
0 0
57.5054 33.2007
1058.31 142.704
8151.07 397.733
16892.7 573.698
51246.2 1000.5
53485.8 1022.06
63170.1 1110.16
58715.1 1070.44
62858.8 1107.43
58978.7 1072.92
62977.3 1108.48
56593.1 1050.79
63317.2 1111.37
56123.1 1046.59
64315.3 1120.12
58407.7 1067.85
64084.1 1118.13
58642.2 1069.99
62987.9 1108.5
56772.8 1052.68
61687.7 1097.06
59281.6 1075.59
64903.9 1125.26
56656.6 1051.61
65108.5 1127.11
56953.8 1054.4
65934.6 1134.29
57416.2 1058.79
64268.2 1119.81
60558.6 1087.53
66927.2 1142.77
58041 1064.54
65676 1132.03
59109.8 1074.42
65337.5 1129.22
60452.8 1086.51
64495.5 1121.9
61141.7 1092.73
63952.3 1117.19
57725.2 1061.61
65524.6 1130.93
61042 1091.82
62721.1 1106.55
57809.4 1062.43
63737.9 1115.32
57872.6 1063.06
65302.2 1128.77
55750.1 1043.08
64958.9 1125.87
57555.5 1060.1
64706.7 1123.53
58513.3 1068.89
63704.1 1114.73
56396.4 1049.13
61822.8 1098.08
58484.2 1068.54
63092.7 1109.48
58099.9 1064.9
64349.5 1120.54
56340 1048.62
63699.2 1114.82
58346.7 1067.09
63187.1 1110.28
57591.9 1060.23
63394 1112.2
57571.4 1060.21
63305.1 1111.33
58802.6 1071.32
63653.2 1114.35
58302.8 1066.65
65170.4 1127.51
56315 1048.34
62552.1 1104.6
54725.2 1033.55
59052.1 1073.72
45155.9 939.443
17771.7 588.149
7063.89 370.252
982.607 137.594
153.725 54.3504
0 0
0 0
0 0
0 0
0 0
0 0
0 0
0 0
0 0
0 0
0 0
0 0
0 0
0 0
0 0
0 0
0 0
0 0
0 0
0 0
0 0
0 0
0 0
0 0
0 0
0 0
0 0
0 0
0 0
0 0
0 0
0 0
0 0
0 0
0 0
0 0
0 0
0 0
0 0
0 0
0 0
0 0
0 0
0 0
0 0
0 0
0 0
0 0
95.9857 42.9263
750.103 120.113
9511.12 429.234
19874.8 621.684
54538.1 1031.67
63659.9 1114.3
67999 1151.21
67897.9 1150.32
67495.8 1146.81
69341.6 1162.66
67721 1148.98
66814.6 1141.18
68367.8 1154.48
69114.3 1160.64
70102.5 1168.86
67216.9 1144.72
70077.7 1168.77
65841.8 1132.87
68288.5 1153.63
69168.9 1161.23
70094.3 1168.88
71046.5 1176.77
67921.9 1150.4
70598.3 1173.05
68069 1151.74
71439.6 1180.04
69392.7 1162.86
69019.6 1159.87
70545 1172.82
69430.2 1163.49
71259.4 1178.68
71884 1184
71395.6 1179.8
70407.8 1171.67
70987.8 1176.6
72095.7 1185.55
71982.3 1184.65
68882.8 1158.89
69397.4 1163.27
71591.6 1181.43
70861.6 1175.32
70407.8 1171.51
71335 1179.28
69947.9 1167.75
73498.3 1197.17
68991.5 1159.73
71338.2 1179.17
71097.7 1177.13
71281.7 1178.72
67262.2 1144.83
70203.1 1169.72
68245.1 1153.23
69531.6 1164.21
67534.3 1147.13
67160.4 1144.09
68479.9 1155.22
69273 1162
69024.9 1159.8
69486.1 1163.77
67705.3 1148.71
67825.1 1149.92
68477.2 1155.33
68098.5 1152.07
68503.2 1155.45
68160.1 1152.62
67533.4 1147.28
69163.7 1160.98
68995.7 1159.63
69977.2 1167.74
66873.7 1141.69
67326.1 1145.58
68369.8 1154.51
68988.2 1159.67
66778.7 1140.9
64407.6 1120.71
53915.9 1025.98
19864.4 621.361
9576.88 430.886
673.674 113.873
134.277 50.7522
0 0
0 0
0 0
0 0
0 0
0 0
0 0
0 0
0 0
0 0
0 0
0 0
0 0
0 0
0 0
0 0
0 0
0 0
0 0
0 0
0 0
0 0
0 0
0 0
0 0
0 0
0 0
0 0
0 0
0 0
0 0
0 0
0 0
0 0
0 0
0 0
0 0
0 0
0 0
0 0
0 0
0 0
0 0
0 0
0 0
0 0
0 0
0 0
57.6488 33.2838
672.618 113.694
8676.98 409.953
18550.6 600.59
53716.5 1023.67
65488.7 1129.97
69444.6 1163.4
68930.2 1159.19
67711.9 1148.99
69986.8 1167.9
68466.9 1155.16
65767.1 1132.08
68807.5 1157.94
69669.3 1165.21
67328.6 1145.46
67863 1150.06
66610.3 1139.36
70371.2 1171.22
68322.3 1153.88
67556.1 1147.34
69139.6 1160.9
67842.8 1150.05
70330.9 1170.55
67881.8 1150.22
69575.6 1164.46
69846.3 1166.7
68220.9 1152.99
68648.6 1156.75
70100 1168.82
70133.4 1169.38
71592.7 1181.44
73240.6 1195.04
71146.3 1177.61
69773 1166.29
70766.4 1174.55
69615.1 1165.12
73442.4 1196.42
70303.3 1170.74
71691.8 1182.28
69427.8 1163.61
69479.5 1163.99
70953.4 1176.03
72687.5 1190.46
71598.7 1181.54
70482.1 1172.26
69881.6 1167.29
68769.8 1157.8
68217.6 1152.93
68767.3 1157.76
69212.8 1161.48
67533.9 1147.29
68907.3 1158.8
70423.7 1171.61
67903.9 1150.43
69201.7 1161.46
68241.1 1153.33
71219.6 1178.18
67851.6 1150.04
70387.1 1171.16
69571.9 1164.39
69264.5 1161.69
69148.1 1160.72
67018.9 1142.84
67051.7 1143.23
68720.7 1157.3
69526.8 1164.13
67182.9 1144.31
69277.8 1161.92
69012.7 1159.76
70754.5 1174.19
66351 1137.09
68290.4 1153.66
67627.7 1148.06
68584.8 1156.16
66127.1 1135.59
53838.9 1024.88
19401.7 614.141
9196.91 421.986
788.336 123.118
115.401 47.1126
0 0
0 0
0 0
0 0
0 0
0 0
0 0
0 0
0 0
0 0
0 0
0 0
0 0
0 0
0 0
0 0
0 0
0 0
0 0
0 0
0 0
0 0
0 0
0 0
0 0
0 0
0 0
0 0
0 0
0 0
0 0
0 0
0 0
0 0
0 0
0 0
0 0
0 0
0 0
0 0
0 0
0 0
0 0
0 0
0 0
0 0
0 0
0 0
38.3369 27.1083
384.66 86.0132
8619.96 408.628
19288.1 612.389
56193.1 1046.98
69633.4 1165.26
70220.2 1169.84
69397.6 1162.94
70109.2 1168.97
68562 1155.95
68469 1155.2
68008.9 1151.05
69009.5 1159.7
68391.5 1154.38
66533 1138.71
68621.3 1156.45
69304.5 1162.2
70557.2 1172.69
69639.2 1165.03
67719.7 1148.79
68637.1 1156.72
69433.8 1163.39
68596.5 1156.36
69127.7 1160.71
70337.9 1170.83
68781.1 1157.66
69370 1162.81
67990 1151.22
70657.3 1173.71
71356.9 1179.49
68617.7 1156.72
69572.8 1164.57
69041.1 1160.23
68435.5 1155.13
72460.1 1188.49
72620.1 1189.84
71463.4 1180.28
72505.3 1188.92
68839.3 1158.48
72768.7 1191.15
72471.3 1188.52
70269 1170.5
73373.8 1196.1
70065.3 1168.73
70024.1 1168.53
71095.9 1177.43
68756.6 1157.75
68457.1 1155
69427.1 1163.11
67467.2 1146.82
68724 1157.36
68568.9 1156.06
70214.1 1169.91
68608.4 1156.4
69916.5 1167.38
66398.5 1137.57
70141.2 1169.18
68277.7 1153.62
68951.9 1159.39
69686.1 1165.49
68348.2 1154.15
70549.8 1172.73
67547.2 1147.35
68105.9 1152.03
69326.2 1162.4
67490.9 1146.73
69238.8 1161.75
68733.5 1157.52
70321.8 1170.73
67610 1147.92
68195.5 1152.89
68170.1 1152.62
68892.4 1158.72
68915 1158.77
66551.7 1139.02
54887.4 1034.76
19230.3 611.478
9391.39 426.444
652.939 111.979
95.8103 42.8477
0 0
0 0
0 0
0 0
0 0
0 0
0 0
0 0
0 0
0 0
0 0
0 0
0 0
0 0
0 0
0 0
0 0
0 0
0 0
0 0
0 0
0 0
0 0
0 0
0 0
0 0
0 0
0 0
0 0
0 0
0 0
0 0
0 0
0 0
0 0
0 0
0 0
0 0
0 0
0 0
0 0
0 0
0 0
0 0
0 0
0 0
0 0
0 0
0 0
134.466 50.8237
7420.7 379.185
19528.7 616.006
56926.4 1053.9
65287.3 1128.01
67564 1147.47
66496.4 1138.41
69924.7 1167.36
69125.8 1160.84
67085.6 1143.48
70812 1174.82
67978.3 1151.03
70296.9 1170.31
68671.6 1156.97
68999.6 1159.54
67986.9 1151.17
68760 1157.64
69792 1166.28
68308 1153.8
68103.4 1151.99
67784.9 1149.57
68461.9 1155.24
68215.9 1153.07
69813.2 1166.47
68639.3 1156.76
69449.2 1163.32
68292.8 1153.71
70041.1 1168.49
68870.2 1158.84
68267.8 1153.61
69564.1 1164.75
71135.8 1177.6
71543.6 1181.12
71008.6 1176.63
67237.4 1144.91
69733.6 1165.96
72043.9 1185.34
70827.4 1175.08
71859.2 1183.75
71610.7 1181.58
71024.8 1176.57
71336.6 1179.47
71367.5 1179.5
68307.2 1153.95
71424.9 1179.97
68499 1155.54
67567.5 1147.53
66627.7 1139.49
68579.9 1156.08
69658.2 1165.18
68797.1 1158.1
68614.2 1156.33
69334.2 1162.37
71823.5 1183.16
70625.6 1173.34
67134.7 1143.82
69627.8 1164.84
68080.1 1151.92
67312.3 1145.35
69775.5 1166.17
68409.2 1154.52
67446.3 1146.63
68665.6 1156.87
67652.4 1148.31
67200.2 1144.44
68784.2 1157.72
66270.8 1136.55
67328.6 1145.46
69513.1 1163.74
68395.7 1154.62
68902 1158.88
70148.6 1169.46
69299.8 1162.12
66857.8 1141.59
57363.8 1057.83
20286.9 628.155
8808.1 412.933
249.393 69.1692
19.1621 19.1621
0 0
0 0
0 0
0 0
0 0
0 0
0 0
0 0
0 0
0 0
0 0
0 0
0 0
0 0
0 0
0 0
0 0
0 0
0 0
0 0
0 0
0 0
0 0
0 0
0 0
0 0
0 0
0 0
0 0
0 0
0 0
0 0
0 0
0 0
0 0
0 0
0 0
0 0
0 0
0 0
0 0
0 0
0 0
0 0
0 0
0 0
0 0
0 0
0 0
172.516 57.5053
7511.25 381.331
18337.2 597.135
57643.5 1060.47
65471.3 1129.84
69738.1 1165.87
68416.9 1154.98
68620.4 1156.27
69043.6 1160.11
67764.7 1149.22
68188.8 1152.77
70020.4 1168.14
68927.5 1159.14
68111.4 1152.12
67840.9 1149.69
68865.7 1158.6
69275.3 1162.04
68675 1156.86
68463.1 1155.1
69040 1159.89
66513.4 1138.54
69271.1 1161.97
68411.1 1154.72
68576.7 1156.19
67752.4 1149.18
66979.7 1142.67
69204.8 1161.35
69931.4 1167.47
71827.8 1183.23
73168.4 1194.5
71853.5 1183.65
70563.2 1172.96
70918 1175.77
73135.9 1194.13
71881.5 1183.79
71150.4 1177.68
71356.6 1179.48
69849 1167.07
71198.2 1178.15
73206.7 1194.65
72928.9 1192.5
72410.5 1188.16
71149.8 1177.67
71397 1179.82
70628.7 1173.4
68883.6 1158.74
68852.5 1158.38
70955.7 1175.91
67123.8 1143.63
69830 1166.59
69110.5 1160.58
69893.1 1167.15
67665.8 1148.37
69839.3 1166.58
68773.7 1157.7
69244.1 1161.68
67907.7 1150.32
67567.3 1147.53
67542.8 1147.28
68544.9 1155.99
69957.3 1167.74
71089.1 1176.99
69013.7 1159.77
70027.8 1168.43
67854.2 1150.08
70208.5 1169.97
69665.2 1165.3
66626 1139.46
68079.3 1151.91
70139.1 1169.3
67584.1 1147.65
68957.3 1159.48
69228.3 1161.58
67687.4 1148.74
58261.3 1066.07
19123 609.61
7341.65 377.12
229.945 66.3793
0 0
0 0
0 0
0 0
0 0
0 0
0 0
0 0
0 0
0 0
0 0
0 0
0 0
0 0
0 0
0 0
0 0
0 0
0 0
0 0
0 0
0 0
0 0
0 0
0 0
0 0
0 0
0 0
0 0
0 0
0 0
0 0
0 0
0 0
0 0
0 0
0 0
0 0
0 0
0 0
0 0
0 0
0 0
0 0
0 0
0 0
0 0
0 0
0 0
0 0
0 0
6215.72 346.932
17458.9 582.604
57996.5 1063.54
68315 1154.08
71235.1 1178.27
66703.7 1139.96
68834.7 1158.24
67492.7 1146.92
66845.6 1141.38
69978.6 1167.77
68608.6 1156.4
68414.4 1154.61
68715 1157.21
68528.3 1155.71
68167.3 1152.57
68416.4 1154.64
67425.2 1146.44
69167 1161.04
69014.5 1159.95
67458.8 1146.68
69995.1 1168.21
69328.1 1162.43
67595.5 1147.68
70510.3 1172.4
68980.4 1159.38
68832.9 1158.21
70180.4 1169.67
69666.1 1165.48
70086.9 1168.76
68520.5 1155.9
72317.2 1187.43
71585.6 1181.33
71333.2 1179.25
69296.5 1162.39
68456.4 1155.32
71116 1177.44
72050.5 1185.29
69875.8 1167.19
70573.9 1173.13
71684.9 1182.16
70931.5 1175.99
71359.7 1179.37
69635.5 1165.13
71209.9 1178.34
69357.6 1162.76
70031.5 1168.32
70097.6 1168.78
67655.6 1148.37
69107.9 1160.54
69916.2 1167.38
68433.9 1154.93
70813.9 1174.85
68601.3 1156.28
68499.2 1155.38
67469.9 1146.87
66761.5 1140.78
66907.1 1141.93
67198 1144.4
70055.4 1168.56
66109.7 1135.12
67823.9 1149.73
68404.3 1154.6
71220 1178.35
70188 1169.47
69210.7 1161.44
68767 1157.59
69515 1163.77
68348.9 1154
69775.4 1166
71286.7 1178.64
70212.5 1169.72
68587.9 1156.22
66793 1140.98
59597.1 1078.12
18186.2 594.744
7048.96 369.472
95.8103 42.8477
0 0
0 0
0 0
0 0
0 0
0 0
0 0
0 0
0 0
0 0
0 0
0 0
0 0
0 0
0 0
0 0
0 0
0 0
0 0
0 0
0 0
0 0
0 0
0 0
0 0
0 0
0 0
0 0
0 0
0 0
0 0
0 0
0 0
0 0
0 0
0 0
0 0
0 0
0 0
0 0
0 0
0 0
0 0
0 0
0 0
0 0
0 0
0 0
0 0
0 0
0 0
6080.54 343.151
17314.8 580.062
58111.9 1064.59
68853.7 1158.56
68017.3 1151.52
70223.9 1169.91
67265.8 1145.06
69208.9 1161.58
66609.9 1139.35
69468.2 1163.47
67908.4 1150.5
68426.3 1154.97
69006 1159.64
66933.4 1142.21
67533.9 1147.29
68212.5 1153.01
68891.9 1158.87
70629.5 1173.25
68580.9 1156.1
70506.6 1172.34
65968.4 1134.04
68952.1 1159.23
67553.8 1147.46
71454.9 1180.14
67098.9 1143.54
67317.1 1145.43
71342.8 1179.25
70961.6 1176.17
70065.4 1168.73
70738.2 1174.41
69130.3 1160.92
70614.3 1173.32
71565.1 1181.31
71651.4 1181.93
70094.1 1168.88
70779.1 1174.76
70128.1 1169.29
72471.1 1188.68
72307.1 1187.26
72330.3 1187.48
70714.5 1174.17
71449.7 1180.21
70297.4 1170.48