# vtk DataFile Version 2.0
absorber
ASCII
DATASET POLYDATA
POINTS 4225 float
-0.121094 1.500000 -0.121094
-0.125000 1.500000 -0.125000
-0.121094 1.500000 -0.125000
-0.125000 1.500000 -0.121094
-0.121094 1.500000 -0.117188
-0.125000 1.500000 -0.117188
-0.121094 1.500000 -0.113281
-0.125000 1.500000 -0.113281
-0.121094 1.500000 -0.109375
-0.125000 1.500000 -0.109375
-0.121094 1.500000 -0.105469
-0.125000 1.500000 -0.105469
-0.121094 1.500000 -0.101562
-0.125000 1.500000 -0.101562
-0.121094 1.500000 -0.097656
-0.125000 1.500000 -0.097656
-0.121094 1.500000 -0.093750
-0.125000 1.500000 -0.093750
-0.121094 1.500000 -0.089844
-0.125000 1.500000 -0.089844
-0.121094 1.500000 -0.085938
-0.125000 1.500000 -0.085938
-0.121094 1.500000 -0.082031
-0.125000 1.500000 -0.082031
-0.121094 1.500000 -0.078125
-0.125000 1.500000 -0.078125
-0.121094 1.500000 -0.074219
-0.125000 1.500000 -0.074219
-0.121094 1.500000 -0.070312
-0.125000 1.500000 -0.070312
-0.121094 1.500000 -0.066406
-0.125000 1.500000 -0.066406
-0.121094 1.500000 -0.062500
-0.125000 1.500000 -0.062500
-0.121094 1.500000 -0.058594
-0.125000 1.500000 -0.058594
-0.121094 1.500000 -0.054688
-0.125000 1.500000 -0.054688
-0.121094 1.500000 -0.050781
-0.125000 1.500000 -0.050781
-0.121094 1.500000 -0.046875
-0.125000 1.500000 -0.046875
-0.121094 1.500000 -0.042969
-0.125000 1.500000 -0.042969
-0.121094 1.500000 -0.039062
-0.125000 1.500000 -0.039062
-0.121094 1.500000 -0.035156
-0.125000 1.500000 -0.035156
-0.121094 1.500000 -0.031250
-0.125000 1.500000 -0.031250
-0.121094 1.500000 -0.027344
-0.125000 1.500000 -0.027344
-0.121094 1.500000 -0.023438
-0.125000 1.500000 -0.023438
-0.121094 1.500000 -0.019531
-0.125000 1.500000 -0.019531
-0.121094 1.500000 -0.015625
-0.125000 1.500000 -0.015625
-0.121094 1.500000 -0.011719
-0.125000 1.500000 -0.011719
-0.121094 1.500000 -0.007812
-0.125000 1.500000 -0.007812
-0.121094 1.500000 -0.003906
-0.125000 1.500000 -0.003906
-0.121094 1.500000 0.000000
-0.125000 1.500000 0.000000
-0.121094 1.500000 0.003906
-0.125000 1.500000 0.003906
-0.121094 1.500000 0.007812
-0.125000 1.500000 0.007812
-0.121094 1.500000 0.011719
-0.125000 1.500000 0.011719
-0.121094 1.500000 0.015625
-0.125000 1.500000 0.015625
-0.121094 1.500000 0.019531
-0.125000 1.500000 0.019531
-0.121094 1.500000 0.023438
-0.125000 1.500000 0.023438
-0.121094 1.500000 0.027344
-0.125000 1.500000 0.027344
-0.121094 1.500000 0.031250
-0.125000 1.500000 0.031250
-0.121094 1.500000 0.035156
-0.125000 1.500000 0.035156
-0.121094 1.500000 0.039062
-0.125000 1.500000 0.039062
-0.121094 1.500000 0.042969
-0.125000 1.500000 0.042969
-0.121094 1.500000 0.046875
-0.125000 1.500000 0.046875
-0.121094 1.500000 0.050781
-0.125000 1.500000 0.050781
-0.121094 1.500000 0.054688
-0.125000 1.500000 0.054688
-0.121094 1.500000 0.058594
-0.125000 1.500000 0.058594
-0.121094 1.500000 0.062500
-0.125000 1.500000 0.062500
-0.121094 1.500000 0.066406
-0.125000 1.500000 0.066406
-0.121094 1.500000 0.070312
-0.125000 1.500000 0.070312
-0.121094 1.500000 0.074219
-0.125000 1.500000 0.074219
-0.121094 1.500000 0.078125
-0.125000 1.500000 0.078125
-0.121094 1.500000 0.082031
-0.125000 1.500000 0.082031
-0.121094 1.500000 0.085938
-0.125000 1.500000 0.085938
-0.121094 1.500000 0.089844
-0.125000 1.500000 0.089844
-0.121094 1.500000 0.093750
-0.125000 1.500000 0.093750
-0.121094 1.500000 0.097656
-0.125000 1.500000 0.097656
-0.121094 1.500000 0.101562
-0.125000 1.500000 0.101562
-0.121094 1.500000 0.105469
-0.125000 1.500000 0.105469
-0.121094 1.500000 0.109375
-0.125000 1.500000 0.109375
-0.121094 1.500000 0.113281
-0.125000 1.500000 0.113281
-0.121094 1.500000 0.117188
-0.125000 1.500000 0.117188
-0.121094 1.500000 0.121094
-0.125000 1.500000 0.121094
-0.121094 1.500000 0.125000
-0.125000 1.500000 0.125000
-0.117188 1.500000 -0.121094
-0.117188 1.500000 -0.125000
-0.117188 1.500000 -0.117188
-0.117188 1.500000 -0.113281
-0.117188 1.500000 -0.109375
-0.117188 1.500000 -0.105469
-0.117188 1.500000 -0.101562
-0.117188 1.500000 -0.097656
-0.117188 1.500000 -0.093750
-0.117188 1.500000 -0.089844
-0.117188 1.500000 -0.085938
-0.117188 1.500000 -0.082031
-0.117188 1.500000 -0.078125
-0.117188 1.500000 -0.074219
-0.117188 1.500000 -0.070312
-0.117188 1.500000 -0.066406
-0.117188 1.500000 -0.062500
-0.117188 1.500000 -0.058594
-0.117188 1.500000 -0.054688
-0.117188 1.500000 -0.050781
-0.117188 1.500000 -0.046875
-0.117188 1.500000 -0.042969
-0.117188 1.500000 -0.039062
-0.117188 1.500000 -0.035156
-0.117188 1.500000 -0.031250
-0.117188 1.500000 -0.027344
-0.117188 1.500000 -0.023438
-0.117188 1.500000 -0.019531
-0.117188 1.500000 -0.015625
-0.117188 1.500000 -0.011719
-0.117188 1.500000 -0.007812
-0.117188 1.500000 -0.003906
-0.117188 1.500000 0.000000
-0.117188 1.500000 0.003906
-0.117188 1.500000 0.007812
-0.117188 1.500000 0.011719
-0.117188 1.500000 0.015625
-0.117188 1.500000 0.019531
-0.117188 1.500000 0.023438
-0.117188 1.500000 0.027344
-0.117188 1.500000 0.031250
-0.117188 1.500000 0.035156
-0.117188 1.500000 0.039062
-0.117188 1.500000 0.042969
-0.117188 1.500000 0.046875
-0.117188 1.500000 0.050781
-0.117188 1.500000 0.054688
-0.117188 1.500000 0.058594
-0.117188 1.500000 0.062500
-0.117188 1.500000 0.066406
-0.117188 1.500000 0.070312
-0.117188 1.500000 0.074219
-0.117188 1.500000 0.078125
-0.117188 1.500000 0.082031
-0.117188 1.500000 0.085938
-0.117188 1.500000 0.089844
-0.117188 1.500000 0.093750
-0.117188 1.500000 0.097656
-0.117188 1.500000 0.101562
-0.117188 1.500000 0.105469
-0.117188 1.500000 0.109375
-0.117188 1.500000 0.113281
-0.117188 1.500000 0.117188
-0.117188 1.500000 0.121094
-0.117188 1.500000 0.125000
-0.113281 1.500000 -0.121094
-0.113281 1.500000 -0.125000
-0.113281 1.500000 -0.117188
-0.113281 1.500000 -0.113281
-0.113281 1.500000 -0.109375
-0.113281 1.500000 -0.105469
-0.113281 1.500000 -0.101562
-0.113281 1.500000 -0.097656
-0.113281 1.500000 -0.093750
-0.113281 1.500000 -0.089844
-0.113281 1.500000 -0.085938
-0.113281 1.500000 -0.082031
-0.113281 1.500000 -0.078125
-0.113281 1.500000 -0.074219
-0.113281 1.500000 -0.070312
-0.113281 1.500000 -0.066406
-0.113281 1.500000 -0.062500
-0.113281 1.500000 -0.058594
-0.113281 1.500000 -0.054688
-0.113281 1.500000 -0.050781
-0.113281 1.500000 -0.046875
-0.113281 1.500000 -0.042969
-0.113281 1.500000 -0.039062
-0.113281 1.500000 -0.035156
-0.113281 1.500000 -0.031250
-0.113281 1.500000 -0.027344
-0.113281 1.500000 -0.023438
-0.113281 1.500000 -0.019531
-0.113281 1.500000 -0.015625
-0.113281 1.500000 -0.011719
-0.113281 1.500000 -0.007812
-0.113281 1.500000 -0.003906
-0.113281 1.500000 0.000000
-0.113281 1.500000 0.003906
-0.113281 1.500000 0.007812
-0.113281 1.500000 0.011719
-0.113281 1.500000 0.015625
-0.113281 1.500000 0.019531
-0.113281 1.500000 0.023438
-0.113281 1.500000 0.027344
-0.113281 1.500000 0.031250
-0.113281 1.500000 0.035156
-0.113281 1.500000 0.039062
-0.113281 1.500000 0.042969
-0.113281 1.500000 0.046875
-0.113281 1.500000 0.050781
-0.113281 1.500000 0.054688
-0.113281 1.500000 0.058594
-0.113281 1.500000 0.062500
-0.113281 1.500000 0.066406
-0.113281 1.500000 0.070312
-0.113281 1.500000 0.074219
-0.113281 1.500000 0.078125
-0.113281 1.500000 0.082031
-0.113281 1.500000 0.085938
-0.113281 1.500000 0.089844
-0.113281 1.500000 0.093750
-0.113281 1.500000 0.097656
-0.113281 1.500000 0.101562
-0.113281 1.500000 0.105469
-0.113281 1.500000 0.109375
-0.113281 1.500000 0.113281
-0.113281 1.500000 0.117188
-0.113281 1.500000 0.121094
-0.113281 1.500000 0.125000
-0.109375 1.500000 -0.121094
-0.109375 1.500000 -0.125000
-0.109375 1.500000 -0.117188
-0.109375 1.500000 -0.113281
-0.109375 1.500000 -0.109375
-0.109375 1.500000 -0.105469
-0.109375 1.500000 -0.101562
-0.109375 1.500000 -0.097656
-0.109375 1.500000 -0.093750
-0.109375 1.500000 -0.089844
-0.109375 1.500000 -0.085938
-0.109375 1.500000 -0.082031
-0.109375 1.500000 -0.078125
-0.109375 1.500000 -0.074219
-0.109375 1.500000 -0.070312
-0.109375 1.500000 -0.066406
-0.109375 1.500000 -0.062500
-0.109375 1.500000 -0.058594
-0.109375 1.500000 -0.054688
-0.109375 1.500000 -0.050781
-0.109375 1.500000 -0.046875
-0.109375 1.500000 -0.042969
-0.109375 1.500000 -0.039062
-0.109375 1.500000 -0.035156
-0.109375 1.500000 -0.031250
-0.109375 1.500000 -0.027344
-0.109375 1.500000 -0.023438
-0.109375 1.500000 -0.019531
-0.109375 1.500000 -0.015625
-0.109375 1.500000 -0.011719
-0.109375 1.500000 -0.007812
-0.109375 1.500000 -0.003906
-0.109375 1.500000 0.000000
-0.109375 1.500000 0.003906
-0.109375 1.500000 0.007812
-0.109375 1.500000 0.011719
-0.109375 1.500000 0.015625
-0.109375 1.500000 0.019531
-0.109375 1.500000 0.023438
-0.109375 1.500000 0.027344
-0.109375 1.500000 0.031250
-0.109375 1.500000 0.035156
-0.109375 1.500000 0.039062
-0.109375 1.500000 0.042969
-0.109375 1.500000 0.046875
-0.109375 1.500000 0.050781
-0.109375 1.500000 0.054688
-0.109375 1.500000 0.058594
-0.109375 1.500000 0.062500
-0.109375 1.500000 0.066406
-0.109375 1.500000 0.070312
-0.109375 1.500000 0.074219
-0.109375 1.500000 0.078125
-0.109375 1.500000 0.082031
-0.109375 1.500000 0.085938
-0.109375 1.500000 0.089844
-0.109375 1.500000 0.093750
-0.109375 1.500000 0.097656
-0.109375 1.500000 0.101562
-0.109375 1.500000 0.105469
-0.109375 1.500000 0.109375
-0.109375 1.500000 0.113281
-0.109375 1.500000 0.117188
-0.109375 1.500000 0.121094
-0.109375 1.500000 0.125000
-0.105469 1.500000 -0.121094
-0.105469 1.500000 -0.125000
-0.105469 1.500000 -0.117188
-0.105469 1.500000 -0.113281
-0.105469 1.500000 -0.109375
-0.105469 1.500000 -0.105469
-0.105469 1.500000 -0.101562
-0.105469 1.500000 -0.097656
-0.105469 1.500000 -0.093750
-0.105469 1.500000 -0.089844
-0.105469 1.500000 -0.085938
-0.105469 1.500000 -0.082031
-0.105469 1.500000 -0.078125
-0.105469 1.500000 -0.074219
-0.105469 1.500000 -0.070312
-0.105469 1.500000 -0.066406
-0.105469 1.500000 -0.062500
-0.105469 1.500000 -0.058594
-0.105469 1.500000 -0.054688
-0.105469 1.500000 -0.050781
-0.105469 1.500000 -0.046875
-0.105469 1.500000 -0.042969
[...]
CELL_DATA 8192
SCALARS Front_faces_Incoming_flux double 2
LOOKUP_TABLE default
0 0
0 0
0 0
0 0
0 0
0 0
0 0
0 0
0 0
0 0
0 0
0 0
0 0
0 0
0 0
0 0
0 0
0 0
0 0
0 0
0 0
0 0
0 0
0 0
0 0
0 0
0 0
0 0
0 0
0 0
0 0
0 0
0 0
0 0
0 0
0 0
0 0
0 0
0 0
0 0
0 0
0 0
0 0
0 0
0 0
0 0
0 0
0 0
0 0
0 0
0 0
0 0
0 0
0 0
0 0
0 0
0 0
0 0
0 0
0 0
0 0
0 0
0 0
0 0
0 0
0 0
0 0
0 0
0 0
0 0
0 0
0 0
0 0
0 0
0 0
0 0
0 0
0 0
0 0
0 0
0 0
0 0
0 0
0 0
0 0
0 0
0 0
0 0
0 0
0 0
0 0
0 0
0 0
0 0
0 0
0 0
0 0
0 0
0 0
0 0
0 0
0 0
0 0
0 0
0 0
0 0
0 0
0 0
0 0
0 0
0 0
0 0
0 0
0 0
0 0
0 0
0 0
0 0
0 0
0 0
0 0
0 0
0 0
0 0
0 0
0 0
0 0
0 0
0 0
0 0
0 0
0 0
0 0
0 0
0 0
0 0
0 0
0 0
0 0
0 0
0 0
0 0
0 0
0 0
0 0
0 0
0 0
0 0
0 0
0 0
0 0
0 0
0 0
0 0
0 0
0 0
0 0
0 0
0 0
0 0
0 0
0 0
0 0
0 0
0 0
0 0
0 0
0 0
0 0
0 0
0 0
0 0
0 0
0 0
0 0
0 0
0 0
0 0
0 0
0 0
0 0
0 0
0 0
0 0
0 0
0 0
0 0
0 0
0 0
0 0
0 0
0 0
0 0
0 0
0 0
0 0
0 0
0 0
0 0
0 0
0 0
0 0
0 0
0 0
0 0
0 0
0 0
0 0
0 0
0 0
0 0
0 0
0 0
0 0
0 0
0 0
0 0
0 0
0 0
0 0
0 0
0 0
0 0
0 0
0 0
0 0
0 0
0 0
0 0
0 0
0 0
0 0
0 0
0 0
0 0
0 0
0 0
0 0
0 0
0 0
0 0
0 0
0 0
0 0
0 0
0 0
0 0
0 0
0 0
0 0
0 0
0 0
0 0
0 0
0 0
0 0
0 0
0 0
0 0
0 0
0 0
0 0
0 0
0 0
0 0
0 0
0 0
0 0
0 0
0 0
0 0
0 0
0 0
0 0
0 0
0 0
0 0
0 0
0 0
0 0
0 0
0 0
0 0
0 0
0 0
0 0
0 0
0 0
0 0
0 0
0 0
0 0
0 0
0 0
0 0
0 0
0 0
0 0
0 0
0 0
0 0
0 0
0 0
0 0
0 0
0 0
0 0
0 0
0 0
0 0
0 0
0 0
0 0
0 0
0 0
0 0
0 0
0 0
0 0
0 0
0 0
0 0
0 0
0 0
0 0
0 0
0 0
0 0
0 0
0 0
0 0
0 0
0 0
0 0
0 0
0 0
0 0
0 0
0 0
0 0
0 0
0 0
0 0
0 0
0 0
0 0
0 0
0 0
0 0
0 0
0 0
0 0
0 0
0 0
0 0
0 0
0 0
0 0
0 0
0 0
0 0
0 0
0 0
0 0
0 0
0 0
0 0
0 0
0 0
0 0
0 0
0 0
0 0
0 0
0 0
0 0
0 0
0 0
0 0
0 0
0 0
0 0
0 0
0 0
0 0
0 0
0 0
0 0
0 0
0 0
0 0
0 0
0 0
0 0
0 0
0 0
0 0
0 0
0 0
0 0
0 0
0 0
0 0
0 0
0 0
0 0
0 0
0 0
0 0
0 0
0 0
0 0
0 0
0 0
0 0
0 0
0 0
0 0
0 0
0 0
0 0
0 0
0 0
0 0
0 0
0 0
0 0
0 0
0 0
0 0
0 0
0 0
0 0
0 0
0 0
0 0
0 0
0 0
0 0
0 0
0 0
0 0
0 0
0 0
0 0
0 0
0 0
0 0
0 0
0 0
0 0
0 0
0 0
0 0
0 0
0 0
0 0
0 0
0 0
0 0
0 0
0 0
0 0
0 0
0 0
0 0
0 0
0 0
0 0
0 0
0 0
0 0
0 0
0 0
0 0
0 0
0 0
0 0
0 0
0 0
0 0
0 0
0 0
0 0
0 0
0 0
0 0
0 0
0 0
0 0
0 0
0 0
0 0
0 0
0 0
0 0
0 0
0 0
0 0
0 0
0 0
0 0
0 0
0 0
0 0
0 0
0 0
0 0
0 0
0 0
0 0
0 0
0 0
0 0
0 0
0 0
0 0
0 0
0 0
0 0
0 0
0 0
0 0
0 0
0 0
0 0
0 0
0 0
0 0
0 0
0 0
0 0
0 0
0 0
0 0
0 0
0 0
0 0
0 0
0 0
0 0
0 0
0 0
0 0
0 0
0 0
0 0
0 0
0 0
0 0
0 0
0 0
0 0
0 0
0 0
0 0
0 0
0 0
0 0
0 0
0 0
0 0
0 0
0 0
0 0
0 0
0 0
0 0
0 0
0 0
0 0
0 0
0 0
0 0
0 0
0 0
0 0
0 0
0 0
0 0
0 0
0 0
0 0
0 0
0 0
0 0
0 0
0 0
0 0
0 0
0 0
0 0
0 0
0 0
0 0
0 0
0 0
0 0
0 0
0 0
0 0
0 0
0 0
0 0
0 0
0 0
0 0
0 0
0 0
0 0
0 0
0 0
0 0
0 0
0 0
0 0
0 0
0 0
0 0
0 0
0 0
0 0
0 0
0 0
0 0
0 0
0 0
0 0
0 0
0 0
0 0
0 0
0 0
0 0
0 0
0 0
0 0
0 0
0 0
0 0
0 0
0 0
0 0
0 0
0 0
0 0
0 0
0 0
0 0
0 0
0 0
0 0
0 0
0 0
0 0
0 0
0 0
0 0
0 0
0 0
0 0
0 0
0 0
0 0
0 0
0 0
0 0
0 0
0 0
0 0
0 0
0 0
0 0
0 0
0 0
0 0
0 0
0 0
0 0
0 0
0 0
0 0
0 0
0 0
0 0
0 0
0 0
0 0
0 0
0 0
0 0
0 0
0 0
0 0
0 0
0 0
0 0
0 0
0 0
0 0
0 0
0 0
0 0
0 0
0 0
0 0
0 0
0 0
0 0
0 0
0 0
0 0
0 0
0 0
0 0
0 0
0 0
0 0
0 0
0 0
0 0
0 0
0 0
0 0
0 0
0 0
0 0
0 0
0 0
0 0
0 0
0 0
0 0
0 0
0 0
0 0
0 0
0 0
0 0
0 0
0 0
0 0
0 0
0 0
0 0
0 0
0 0
0 0
0 0
0 0
0 0
0 0
0 0
0 0
0 0
0 0
0 0
0 0
0 0
0 0
0 0
0 0
0 0
0 0
0 0
0 0
0 0
0 0
0 0
0 0
0 0
0 0
0 0
0 0
0 0
0 0
0 0
0 0
0 0
0 0
0 0
0 0
0 0
0 0
0 0
0 0
0 0
0 0
0 0
0 0
0 0
0 0
0 0
0 0
0 0
0 0
0 0
0 0
0 0
0 0
0 0
0 0
0 0
0 0
0 0
0 0
0 0
0 0
0 0
0 0
0 0
0 0
0 0
0 0
0 0
0 0
0 0
0 0
0 0
0 0
0 0
0 0
0 0
0 0
0 0
0 0
0 0
0 0
0 0
0 0
0 0
0 0
0 0
0 0
0 0
0 0
0 0
0 0
0 0
0 0
0 0
0 0
0 0
0 0
0 0
0 0
0 0
0 0
0 0
0 0
0 0
0 0
0 0
0 0
0 0
0 0
0 0
0 0
0 0
0 0
0 0
0 0
0 0
0 0
0 0
0 0
0 0
0 0
0 0
0 0
0 0
0 0
0 0
0 0
0 0
0 0
0 0
0 0
0 0
0 0
0 0
0 0
0 0
0 0
0 0
0 0
0 0
0 0
0 0
0 0
0 0
0 0
0 0
0 0
0 0
0 0
0 0
0 0
0 0
0 0
0 0
0 0
0 0
0 0
0 0
0 0
0 0
0 0
0 0
0 0
0 0
0 0
0 0
0 0
0 0
0 0
0 0
0 0
0 0
0 0
0 0
0 0
0 0
0 0
0 0
0 0
0 0
0 0
0 0
0 0
0 0
0 0
0 0
0 0
0 0
0 0
0 0
0 0
0 0
0 0
0 0
0 0
0 0
0 0
0 0
0 0
0 0
0 0
0 0
0 0
0 0
0 0
0 0
0 0
0 0
0 0
0 0
0 0
0 0
0 0
0 0
0 0
0 0
0 0
0 0
0 0
0 0
0 0
0 0
0 0
0 0
0 0
0 0
0 0
0 0
0 0
0 0
0 0
0 0
0 0
0 0
0 0
0 0
0 0
0 0
0 0
0 0
0 0
0 0
0 0
0 0
0 0
0 0
0 0
0 0
0 0
0 0
0 0
0 0
0 0
0 0
0 0
0 0
0 0
0 0
0 0
0 0
0 0
0 0
0 0
0 0
0 0
0 0
0 0
0 0
0 0
0 0
0 0
0 0
0 0
0 0
0 0
0 0
0 0
0 0
0 0
0 0
0 0
0 0
0 0
0 0
0 0
0 0
0 0
0 0
0 0
0 0
0 0
0 0
0 0
0 0
0 0
0 0
0 0
0 0
0 0
0 0
0 0
0 0
0 0
0 0
0 0
0 0
0 0
0 0
0 0
0 0
0 0
0 0
0 0
0 0
0 0
0 0
0 0
0 0
0 0
0 0
0 0
0 0
0 0
0 0
0 0
0 0
0 0
0 0
0 0
0 0
0 0
0 0
0 0
0 0
0 0
0 0
0 0
0 0
0 0
0 0
0 0
0 0
0 0
0 0
0 0
0 0
0 0
0 0
0 0
0 0
0 0
0 0
0 0
0 0
0 0
0 0
0 0
0 0
0 0
0 0
0 0
0 0
0 0
0 0
0 0
0 0
0 0
0 0
0 0
0 0
0 0
0 0
0 0
0 0
0 0
0 0
0 0
0 0
0 0
0 0
0 0
0 0
0 0
0 0
0 0
0 0
0 0
0 0
0 0
0 0
0 0
0 0
0 0
0 0
0 0
0 0
0 0
0 0
0 0
0 0
0 0
0 0
0 0
0 0
0 0
0 0
0 0
0 0
0 0
0 0
0 0
0 0
0 0
0 0
0 0
0 0
0 0
0 0
0 0
0 0
0 0
0 0
0 0
0 0
0 0
0 0
0 0
0 0
0 0
0 0
0 0
0 0
0 0
0 0
0 0
0 0
0 0
0 0
0 0
0 0
0 0
0 0
0 0
0 0
0 0
0 0
0 0
0 0
0 0
0 0
0 0
0 0
0 0
0 0
0 0
0 0
0 0
0 0
0 0
0 0
0 0
0 0
0 0
0 0
0 0
0 0
0 0
0 0
0 0
0 0
0 0
0 0
0 0
0 0
0 0
0 0
0 0
0 0
0 0
0 0
0 0
0 0
0 0
0 0
0 0
0 0
0 0
0 0
0 0
0 0
0 0
0 0
0 0
0 0
0 0
0 0
0 0
0 0
0 0
0 0
0 0
0 0
0 0
0 0
0 0
0 0
0 0
0 0
0 0
0 0
0 0
0 0
0 0
0 0
0 0
0 0
0 0
0 0
0 0
0 0
0 0
0 0
0 0
0 0
0 0
0 0
0 0
0 0
0 0
0 0
0 0
0 0
0 0
0 0
0 0
0 0
0 0
0 0
0 0
0 0
0 0
0 0
0 0
0 0
0 0
0 0
0 0
0 0
0 0
0 0
0 0
0 0
0 0
0 0
0 0
0 0
0 0
0 0
0 0
0 0
0 0
0 0
0 0
0 0
0 0
0 0
0 0
0 0
0 0
0 0
0 0
0 0
0 0
0 0
0 0
0 0
0 0
0 0
0 0
0 0
0 0
0 0
0 0
0 0
0 0
0 0
0 0
0 0
0 0
0 0
0 0
0 0
0 0
0 0
0 0
0 0
0 0
0 0
0 0
0 0
0 0
0 0
0 0
0 0
0 0
0 0
0 0
0 0
0 0
0 0
0 0
0 0
0 0
0 0
0 0
0 0
0 0
0 0
0 0
0 0
0 0
0 0
0 0
0 0
0 0
0 0
0 0
0 0
0 0
0 0
0 0
0 0
0 0
0 0
0 0
0 0
0 0
0 0
0 0
0 0
0 0
0 0
0 0
0 0
0 0
0 0
0 0
0 0
0 0
0 0
0 0
0 0
0 0
0 0
0 0
0 0
0 0
0 0
0 0
0 0
0 0
0 0
0 0
0 0
0 0
0 0
0 0
0 0
0 0
0 0
0 0
0 0
0 0
0 0
0 0
0 0
0 0
0 0
0 0
0 0
0 0
0 0
0 0
0 0
0 0
0 0
0 0
0 0
0 0
0 0
0 0
0 0
0 0
0 0
0 0
0 0
0 0
0 0
0 0
0 0
0 0
0 0
0 0
0 0
0 0
0 0
0 0
0 0
0 0
0 0
0 0
0 0
0 0
0 0
0 0
0 0
0 0
0 0
0 0
0 0
0 0
0 0
0 0
0 0
0 0
0 0
0 0
0 0
0 0
0 0
0 0
0 0
0 0
0 0
0 0
0 0
0 0
0 0
0 0
0 0
0 0
0 0
0 0
0 0
0 0
0 0
0 0
0 0
0 0
0 0
0 0
0 0
0 0
0 0
0 0
0 0
0 0
0 0
0 0
0 0
0 0
0 0
0 0
0 0
0 0
0 0
0 0
0 0
0 0
0 0
0 0
0 0
0 0
0 0
0 0
0 0
0 0
0 0
0 0
0 0
0 0
0 0
0 0
0 0
0 0
0 0
0 0
0 0
0 0
0 0
0 0
0 0
0 0
0 0
0 0
0 0
0 0
0 0
0 0
0 0
0 0
0 0
0 0
0 0
0 0
0 0
0 0
0 0
0 0
0 0
0 0
0 0
0 0
0 0
0 0
0 0
0 0
0 0
0 0
0 0
0 0
0 0
0 0
0 0
0 0
0 0
0 0
0 0
0 0
0 0
0 0
0 0
0 0
0 0
0 0
0 0
0 0
0 0
0 0
0 0
0 0
0 0
0 0
0 0
0 0
0 0
0 0
0 0
0 0
0 0
0 0
0 0
0 0
0 0
0 0
0 0
0 0
0 0
0 0
0 0
0 0
0 0
0 0
0 0
0 0
0 0
0 0
0 0
0 0
0 0
0 0
0 0
0 0
0 0
0 0
0 0
0 0
0 0
0 0
0 0
0 0
0 0
0 0
0 0
0 0
0 0
0 0
0 0
0 0
0 0
0 0
0 0
0 0
0 0
0 0
0 0
0 0
0 0
0 0
0 0
0 0
0 0
0 0
0 0
0 0
0 0
0 0
0 0
0 0
0 0
0 0
0 0
0 0
0 0
0 0
0 0
0 0
0 0
0 0
0 0
0 0
0 0
0 0
0 0
0 0
0 0
0 0
0 0
0 0
0 0
0 0
0 0
0 0
300.126 75.0314
298.711 74.6794
166.273 55.4243
0 0
0 0
0 0
0 0
0 0
0 0
0 0
0 0
0 0
0 0
0 0
0 0
0 0
0 0
0 0
0 0
0 0
0 0
0 0
0 0
0 0
0 0
0 0
0 0
0 0
0 0
0 0
0 0
0 0
0 0
0 0
0 0
0 0
0 0
0 0
0 0
0 0
0 0
0 0
0 0
0 0
0 0
0 0
0 0
0 0
0 0
0 0
0 0
0 0
0 0
0 0
0 0
0 0
0 0
0 0
0 0
0 0
0 0
0 0
0 0
0 0
0 0
0 0
0 0
0 0
0 0
0 0
0 0
0 0
0 0
0 0
0 0
0 0
0 0
0 0
0 0
18.9968 18.9968
0 0
0 0
0 0
0 0
0 0
0 0
0 0
0 0
0 0
0 0
0 0
0 0
73.926 36.963
55.4445 32.0109
731.543 117.141
37.5296 26.5374
0 0
0 0
0 0
0 0
0 0
0 0
0 0
0 0
0 0
0 0
0 0
0 0
0 0
0 0
0 0
0 0
0 0
0 0
0 0
0 0
0 0
0 0
0 0
0 0
0 0
0 0
0 0
0 0
0 0
0 0
0 0
0 0
605.616 107.062
826.559 124.612
937.21 131.242
822.585 122.628
840.257 122.572
175.126 55.3827
569.08 99.0705
67.9284 33.9642
394.413 80.5169
96.7939 39.5159
225.852 60.3616
0 0
436.175 83.9418
580.972 96.8284
1245.75 141.986
505.52 90.865
1039.25 129.971
435.72 83.8542
807.109 114.142
242.028 62.4912
532.496 92.6955
161.352 51.0239
484.09 88.3823
64.5407 32.2704
338.839 73.9406
32.2704 22.8186
242.028 62.4912
0 0
48.4055 27.947
0 0
0 0
0 0
0 0
0 0
0 0
0 0
0 0
0 0
0 0
0 0
0 0
0 0
0 0
0 0
0 0
0 0
0 0
0 0
0 0
0 0
0 0
0 0
0 0
0 0
0 0
0 0
0 0
0 0
0 0
0 0
0 0
0 0
0 0
0 0
0 0
0 0
96.7939 39.5159
0 0
177.456 53.5048
32.2646 22.8145
419.44 82.2589
48.397 27.942
564.667 95.446
80.6975 36.089
693.833 105.808
241.985 62.4802
855.515 117.514
290.418 68.452
912.88 122.088
344.739 75.3336
1317.28 146.435
502.601 90.3011
1275.28 143.479
80.6616 36.073
48.4055 27.947
112.946 42.6897
410.629 82.134
36.2687 25.6971
274.265 68.5709
156.601 52.2003
584.811 101.806
217.508 62.7901
930.835 130.347
756.029 118.075
886.592 129.326
587.116 105.451
0 0
0 0
0 0
0 0
0 0
0 0
0 0
0 0
0 0
0 0
0 0
0 0
0 0
0 0
0 0
0 0
0 0
0 0
0 0
0 0
0 0
0 0
0 0
0 0
0 0
0 0
0 0
0 0
0 0
0 0
0 0
0 0
704.813 115.874
947.189 133.956
906.512 129.506
1005.71 135.614
753.222 116.23
905.095 126.744
1090.1 137.346
990.742 130.097
1143.03 138.703
900.902 121.489
442.269 85.2364
96.7939 39.5159
1568.55 159.262
1959.85 178.188
3096.16 224.742
2324.59 194.484
2722.68 210.101
2294.98 192.589
2975.3 219.34
2133.24 185.674
2861.55 215.086
1873.85 173.981
2425.74 198.06
2036.11 181.39
2570.47 203.85
1906.48 175.505
3200.29 227.433
1841.35 172.458
2554.43 203.218
1470.31 154.13
2651.43 207.041
1696.29 165.54
2489.91 200.641
1098.63 133.228
2586.46 204.476
1114.3 134.146
2295.85 192.663
775.451 111.927
2215.07 189.245
565.393 95.5689
1972.85 178.613
597.783 98.2749
2247.99 190.671
339.417 74.0669
2054.29 182.288
129.392 45.7471
2038.17 181.574
242.583 62.6346
2037.81 181.542
145.518 48.506
2102.43 184.394
388.185 79.2379
1811.33 171.154
339.419 74.0674
2053.36 182.206
565.563 95.5976
2635.92 206.46
694.767 105.951
2344.38 194.689
872.485 118.73
2295.86 192.663
791.107 113.015
2764 211.367
1308.71 145.412
2619.09 205.774
1534.67 157.453
2408.49 197.31
1535.12 157.499
2553.93 203.179
1987.78 179.231
2828.95 213.847
2003.77 179.943
2942.03 218.076
2374.93 195.88
3216.81 228.032
2375.78 195.949
2732.14 210.163
2617.59 205.655
2716.57 209.587
2381.83 196.5
3079.25 223.436
2203.03 188.94
2718.89 209.78
872.747 118.766
129.081 45.6372
403.38 80.6758
934.209 123.749
787.891 114.99
923.887 125.732
917.655 126.055
659.006 108.343
769.423 117.342
954.442 132.363
926.569 131.045
814.703 124.245
763.098 120.659
0 0
0 0
0 0
0 0
0 0
0 0
0 0
0 0
0 0
0 0
0 0
0 0
0 0
0 0
0 0
0 0
0 0
0 0
0 0
0 0
0 0
0 0
0 0
0 0
0 0
0 0
0 0
0 0
0 0
0 0
0 0
0 0
707.679 116.344
1156.41 148.068
950.141 133.05
752.546 117.533
1118.39 142.041
1318.31 153.256
936.026 127.381
1145.64 139.971
1326.9 149.339
1140.41 137.346
871.555 118.603
554.411 95.1392
2573.27 204.072
3566.31 240.475
4543.51 271.583
4281.46 263.561
4836.6 279.704
4286.53 263.316
4319.6 264.352
4076.08 256.766
4659.69 274.571
3849.89 249.549
4933.09 282.464
4384.12 266.313
4982.19 283.882
4820.26 279.226
4868.53 280.614
4480.7 269.216
5482.84 297.782
4432.66 267.783
5886.24 308.517
4755.4 277.337
6177.49 316.062
4901.08 281.556
5482.32 297.754
5579.97 300.41
5950.94 310.209
5660.03 302.536
6015.57 311.887
5611.78 301.251
6209.31 316.862
5643.88 302.105
6014.12 311.812
5708.05 303.804
6160.66 315.615
6759.23 330.598
6306.56 319.339
6451.57 322.976
5869.91 308.085
6241.99 317.703
6096.7 313.99
6662.19 328.216
6354.86 320.554
6144.62 315.207
5724.64 304.256
6064.22 313.15
6419.44 322.177
5449.61 296.854
5918.6 309.365
5337.7 293.826
5724.68 304.258
5677.16 303.019
5838.59 307.289
5451.35 296.949
6242.07 317.707
5079.02 286.622
5563.9 299.98
4060.06 256.266
5370.22 294.725
4059.82 256.25
5418.54 296.042
4028.06 255.265
5548.59 299.591
4561.16 271.61
4496.56 269.682
4108.36 257.779
4610.14 273.078
3865.58 250.041
4675.39 275.019
4173.36 259.819
4891.4 282.045
3940.93 252.863
3956.01 253.285
2427.23 198.181
468.614 87.0194
629.272 100.764
1205.61 141.125
1206.63 142.24
1063.5 135.074
728.736 112.45
947.382 130.137
1043.61 137.039
1032.02 137.917
764.257 119.36
969.772 135.799
574.168 104.83
0 0
0 0
0 0
0 0
0 0
0 0
0 0
0 0
0 0
0 0
0 0
0 0
0 0
0 0
0 0
0 0
0 0
0 0
0 0
0 0
0 0
0 0
0 0
0 0
0 0
0 0
0 0
0 0
0 0
0 0
0 0
0 0
382.476 85.5251
1048.4 141.369
1179.98 148.668
757.539 118.312
1047.96 137.609
965.943 131.453
1135.73 140.878
808.893 117.997
1198.35 142.278
1207.58 141.394
1646.86 163.062
1762.02 168.77
4709.25 276.075
5757.7 305.153
5844.69 307.631
5846.91 307.768
6467.84 323.386
5546.63 299.485
5741.28 304.71
5983.2 311.046
6210.69 316.932
5870.1 308.095
5901.56 308.897
6209.38 316.866
6758.69 330.572
5626.58 301.611
6387.47 321.383
6079.67 313.529
6176.23 315.998
6937.47 334.937
6079.73 313.533
5822.19 306.851
6888.44 333.739
6259.36 318.175
6953.8 335.335
5772.86 305.527
6613.34 327.003
6274.44 318.531
7033.57 337.227
6451.95 322.996
5982.8 311.025
6743.23 330.211
6209.29 316.861
6015.56 311.887
6128.19 314.779
6985.08 336.063
6403.78 321.796
6047.76 312.717
5594.6 300.762
6500.22 324.195
5821.55 306.818
5821.29 306.804
6338.7 320.147
6225.58 317.279
6418.99 322.154
6193.55 316.47
6225.12 317.256
5901.95 308.917
6273.88 318.502
5868.81 308.027
6015.38 311.877
6452.29 323.013
7098.11 338.767
5950.48 310.185
7017.51 336.844
6209.11 316.852
6775.29 330.988
6370.91 320.956
5755.77 305.05
6419.6 322.184
6015.08 311.862
6289.75 318.897
6888.49 333.742
6355.48 320.586
6662.15 328.214
5546.76 299.492
6532.1 324.978
6258.8 318.147
6354.84 320.553
5758.04 305.171
6464.87 323.696
5846.1 308.228
6485.97 323.89
4173.44 259.824
1907.28 175.578
1437.32 152.355
978.404 127.389
1158.48 139.475
775.538 115.62
940.66 128.017
698.281 111.819
921.233 129.003
871.096 127.066
897.088 129.489
914.912 132.057
344.215 81.1331
0 0
0 0
0 0
0 0
0 0
0 0
0 0
0 0
0 0
0 0
0 0
0 0
0 0
0 0
0 0
0 0
0 0
0 0
0 0
0 0
0 0
0 0
0 0
0 0
0 0
0 0
0 0
0 0
0 0
0 0
0 0
0 0
153.537 54.2837
916.535 132.292
978.055 135.636
947.876 132.733
964.455 132.482
1039.99 136.564
999.688 132.423
1141.01 140.458
1194.26 141.762
1253.12 144.78
2280.32 192.04
2329.9 194.185
5481.25 297.696
6145.76 315.27
5764.39 305.539
6775.21 330.984
6225.98 317.299
5950.15 310.168
6322.42 319.733
6516.66 324.612
5885.52 308.48
6646.5 327.841
6775.58 331.002
6419.33 322.171
5788.61 305.933
6015.17 311.867
5626.89 301.628
5933.74 309.734
6193.37 316.461
6387.57 321.387
6306.48 319.335
6273.83 318.5
5886.09 308.51
6355.08 320.566
6581.28 326.215
6273.9 318.503
6403.67 321.79
6613.17 326.994
6306.01 319.311
5772.78 305.523
6839.43 332.538
6144.75 315.213
6161.09 315.637
6128.57 314.798
6209.02 316.847
6403.22 321.768
6742.98 330.198
6225.59 317.28
6257.11 318.061
6015.11 311.864
6289.74 318.897
5529.79 299.012
5918.52 309.361
6128.37 314.787
6646.14 327.823
6030.96 312.266
5724.42 304.245
6322.83 319.753
6079.68 313.53
6483.87 323.783
6096.09 313.959
6144.58 315.205
6128.33 314.786
6613.1 326.991
6904.69 334.135
6598.38 326.662
6467.75 323.382
6160.65 315.614
5918.06 309.336
5951.25 310.225
5966.1 310.577
5853.76 307.662
6661.42 328.178
5739.93 304.639
6176.88 316.031
6161.05 315.635
6306.73 319.348
6129.45 314.843
7129.9 339.512
6435.26 322.564
6337.21 320.543
6234.88 317.792
6356.66 320.652
4722.03 276.332
2407.54 197.232
1698.26 165.736
869.851 120.67
1027.25 131.537
1110.59 138.834
650.855 107.008
825.335 121.696
799.65 120.558
762.752 119.126
1032.25 139.194
554.818 103.028
248.806 69.007
0 0
0 0
0 0
0 0
0 0
0 0
0 0
0 0
0 0
0 0
0 0
0 0
0 0
0 0
0 0
0 0
0 0
0 0
0 0
0 0
0 0
0 0
0 0
0 0
0 0
0 0
0 0
0 0
0 0
0 0
0 0
0 0
76.7687 38.3844
593.394 106.578
849.183 126.593
1042.86 139.364
1005.67 135.61
1241.01 149.409
793.363 118.274
1111.9 138.996
930.623 125.49
958.969 127.065
1074.06 132.249
2165.03 187.029
6506.7 325.364
7347.68 345.649
8478.96 371.904
7148.45 340.828
8016.68 361.066
7027.36 337.72
8462.99 370.779
7250.98 342.964
8244.98 366.184
7191.67 341.301
7608.36 351.708
6218.62 317.342
7697.74 353.577
6849.94 333.054
7251.23 342.977
6634.66 327.659
7325.2 344.55
6424.29 322.422
6857.44 333.423
6064.74 313.177
6768.61 331.063
6469.34 323.461
6393.08 321.668
5933.9 309.742
5724.76 304.263
5998.42 311.417
6468.51 323.419
5869.07 308.041
6597.57 326.622
5788.89 305.947
5933.79 309.736
6322.5 319.737
5982.62 311.016
6629.82 327.417
5077.24 286.521
5918.85 309.378
6759.39 330.606
6079.84 313.538
6113.04 314.415
6451.78 322.987
6354.71 320.547
6855.33 332.918
6484.18 323.798
6274.54 318.535
6370.14 320.917
5805.09 306.376
6209.5 316.872
6565.87 325.852
6506.76 324.525
5967.53 310.653
6413.97 322.314
6211.24 316.961
6466.38 323.726
6260.65 318.243
6486.96 324.352
6505.14 324.443
7546.06 349.946
5875.54 308.385
8100.13 362.619
6428.52 322.638
7423 347.242
6622.79 327.475
7379.27 346.337
6384.99 321.673
7945.54 359.32
6678.24 329.016
7974.2 360.252
7363.13 345.573
8828.17 379.235
7702.47 353.832
8193.81 365.39
5854.12 308.117
1745.92 168.001
1007.49 127.958
873.556 121.154
999.632 130.165
1048.27 135.339
986.584 131.846
851.652 124.234
949.167 131.634
916.304 130.91
889 129.679
403.179 87.9807
95.9949 42.9302
0 0
0 0
0 0
0 0
0 0
0 0
0 0
0 0
0 0
0 0
0 0
0 0
0 0
0 0
0 0
0 0
0 0
0 0
0 0
0 0
0 0
0 0
0 0
0 0
0 0
0 0
0 0
0 0
0 0
0 0
0 0
0 0
0 0
211.114 63.6532
1328.27 158.765
1368.03 160.121
879.31 126.922
1104 141.361
1130.14 141.275
1258.71 148.347
586.198 100.561
522.791 95.5472
908.892 121.493
1974.72 178.792
9449.83 394.168
11500.3 435.079
14118.2 483.546
11432.6 433.419
12987.2 463.033
11976.1 443.624
12472.1 453.699
11069.5 426.121
12954 462.141
11132.6 427.603
13251.3 467.414
11070.9 425.854
13551.1 472.145
10660 417.841
12118.4 446.451
9901.47 402.59
12328.5 450.542
10656.9 417.39
11820.8 441.217
10482.1 414.053
12654.8 456.107
10182.9 407.999
12667.8 456.27
10486 413.877
12482.6 452.847
9497.38 393.702
12098.9 445.716
9567.81 395.265
12517.5 453.2
9714.1 398.262
12026.2 444.538
8795.31 378.862
12113.4 445.624
9543.17 394.583
11398.6 432.086
9509.47 393.863
12451.3 451.683
9158.94 386.713
12678.4 455.742
9685.42 397.417
12679.1 456.071
8577.48 374.017
12544.3 453.576
9281.23 389.456
12225.1 447.935
10217.4 408.392
13200.6 465.596
10315.9 410.369
12777.5 458.446
9285.22 389.627
12236.6 448.37
10430.2 412.969
12670.8 456.387
9964.12 403.465
13684.3 474.482
10655.2 417.651
13149.1 465.25
10004.7 404.788
13326.9 468.329
10293.2 410.463
12019.5 445.25
10590.1 416.712
13009.5 462.934
11182.4 428.255
12797.1 459.478
10883 422.715
13587.6 473.738
11256.4 429.831
13905.6 479.331
11649.4 437.919
13178.5 466.647
7714.29 355.126
2056.92 182.527
743.255 109.587
122.608 46.3721
683.601 108.097
997.699 132.155
902.334 126.358
1147.25 144.547
828.049 123.443
1071.06 141.871
872.383 128.634
153.592 54.3029
19.199 19.199
0 0
0 0
0 0
0 0
0 0
0 0
0 0
0 0
0 0
0 0
0 0
0 0
0 0
0 0
0 0
0 0
0 0
0 0
0 0
0 0
0 0
0 0
0 0
0 0
0 0
0 0
0 0
0 0
0 0
0 0
0 0
0 0
0 0
19.1922 19.1922
1182.23 150.147
1223.79 151.8
716.572 114.748
1220.9 149.16
500.215 94.5349
476.332 91.6752
0 0
92.1584 41.2342
1330.64 147.87
2619.93 207.174
14351.1 489.591
18810.2 560.8
22765.5 619.704
19071.6 564.321
21515.4 601.677
19412 569.674
21777.7 605.693
18365.7 554.197
22815.7 619.174
18420.2 554.57
22043.2 608.573
18556.7 556.656
22830.1 619.312
18733.6 558.945
23278.1 625.059
18880.5 561.591
23645.1 629.704
19472.6 569.682
22755.2 617.711
17623.1 541.686
22509.4 613.957
18518.7 554.972
22900.7 619.588
19913.9 575.723
22609.3 615.544
19022.6 562.545
21609.8 601.85
19319.4 566.627
22247.8 609.999
19292.4 566.321
22663.1 615.862
18868.2 560.429
22974.2 620.436
18964.3 561.806
24264.7 637.629
19542.1 570.221
21865.9 605.247
19243.5 565.862
23187.4 623.012
19121.5 563.983
21465.4 599.446
19055.6 563.274
23246.9 624.171
18596 556.292
22721.4 616.768
18726.8 558.198
22880.2 619.254
19135 564.143
23792.6 631.375
18973.2 561.58
22839.8 619.094
18834.9 559.946
23024.8 621.384
18765.2 558.873
22696.7 616.575
18663.5 557.585
23304.9 625.546
18274.1 552.157
22477.2 614.274
19209 566.369
23123.4 623.166
18810.5 560.514
22738.9 618.445
18573.5 556.926
23023.4 621.85
19121 565.026
21973.1 608.063
18988.7 563.845
22625.1 617.215
18084.1 549.986
20400.1 585.803
13098.9 465.874
3193.05 228.693
866.657 119.101
38.5221 27.2403
34.8002 24.6075
53.3789 30.8183
978.041 131.886
967.756 132.936
1307.05 155.125
755.152 119.404
780.17 121.846
0 0
0 0
0 0
0 0
0 0
0 0
0 0
0 0
0 0
0 0
0 0
0 0
0 0
0 0
0 0
0 0
0 0
0 0
0 0
0 0
0 0
0 0
0 0
0 0
0 0
0 0
0 0
0 0
0 0
0 0
0 0