# vtk DataFile Version 2.0
absorber
ASCII
DATASET POLYDATA
POINTS 4225 float
-0.121094 1.500000 -0.121094
-0.125000 1.500000 -0.125000
-0.121094 1.500000 -0.125000
-0.125000 1.500000 -0.121094
-0.121094 1.500000 -0.117188
-0.125000 1.500000 -0.117188
-0.121094 1.500000 -0.113281
-0.125000 1.500000 -0.113281
-0.121094 1.500000 -0.109375
-0.125000 1.500000 -0.109375
-0.121094 1.500000 -0.105469
-0.125000 1.500000 -0.105469
-0.121094 1.500000 -0.101562
-0.125000 1.500000 -0.101562
-0.121094 1.500000 -0.097656
-0.125000 1.500000 -0.097656
-0.121094 1.500000 -0.093750
-0.125000 1.500000 -0.093750
-0.121094 1.500000 -0.089844
-0.125000 1.500000 -0.089844
-0.121094 1.500000 -0.085938
-0.125000 1.500000 -0.085938
-0.121094 1.500000 -0.082031
-0.125000 1.500000 -0.082031
-0.121094 1.500000 -0.078125
-0.125000 1.500000 -0.078125
-0.121094 1.500000 -0.074219
-0.125000 1.500000 -0.074219
-0.121094 1.500000 -0.070312
-0.125000 1.500000 -0.070312
-0.121094 1.500000 -0.066406
-0.125000 1.500000 -0.066406
-0.121094 1.500000 -0.062500
-0.125000 1.500000 -0.062500
-0.121094 1.500000 -0.058594
-0.125000 1.500000 -0.058594
-0.121094 1.500000 -0.054688
-0.125000 1.500000 -0.054688
-0.121094 1.500000 -0.050781
-0.125000 1.500000 -0.050781
-0.121094 1.500000 -0.046875
-0.125000 1.500000 -0.046875
-0.121094 1.500000 -0.042969
-0.125000 1.500000 -0.042969
-0.121094 1.500000 -0.039062
-0.125000 1.500000 -0.039062
-0.121094 1.500000 -0.035156
-0.125000 1.500000 -0.035156
-0.121094 1.500000 -0.031250
-0.125000 1.500000 -0.031250
-0.121094 1.500000 -0.027344
-0.125000 1.500000 -0.027344
-0.121094 1.500000 -0.023438
-0.125000 1.500000 -0.023438
-0.121094 1.500000 -0.019531
-0.125000 1.500000 -0.019531
-0.121094 1.500000 -0.015625
-0.125000 1.500000 -0.015625
-0.121094 1.500000 -0.011719
-0.125000 1.500000 -0.011719
-0.121094 1.500000 -0.007812
-0.125000 1.500000 -0.007812
-0.121094 1.500000 -0.003906
-0.125000 1.500000 -0.003906
-0.121094 1.500000 0.000000
-0.125000 1.500000 0.000000
-0.121094 1.500000 0.003906
-0.125000 1.500000 0.003906
-0.121094 1.500000 0.007812
-0.125000 1.500000 0.007812
-0.121094 1.500000 0.011719
-0.125000 1.500000 0.011719
-0.121094 1.500000 0.015625
-0.125000 1.500000 0.015625
-0.121094 1.500000 0.019531
-0.125000 1.500000 0.019531
-0.121094 1.500000 0.023438
-0.125000 1.500000 0.023438
-0.121094 1.500000 0.027344
-0.125000 1.500000 0.027344
-0.121094 1.500000 0.031250
-0.125000 1.500000 0.031250
-0.121094 1.500000 0.035156
-0.125000 1.500000 0.035156
-0.121094 1.500000 0.039062
-0.125000 1.500000 0.039062
-0.121094 1.500000 0.042969
-0.125000 1.500000 0.042969
-0.121094 1.500000 0.046875
-0.125000 1.500000 0.046875
-0.121094 1.500000 0.050781
-0.125000 1.500000 0.050781
-0.121094 1.500000 0.054688
-0.125000 1.500000 0.054688
-0.121094 1.500000 0.058594
-0.125000 1.500000 0.058594
-0.121094 1.500000 0.062500
-0.125000 1.500000 0.062500
-0.121094 1.500000 0.066406
-0.125000 1.500000 0.066406
-0.121094 1.500000 0.070312
-0.125000 1.500000 0.070312
-0.121094 1.500000 0.074219
-0.125000 1.500000 0.074219
-0.121094 1.500000 0.078125
-0.125000 1.500000 0.078125
-0.121094 1.500000 0.082031
-0.125000 1.500000 0.082031
-0.121094 1.500000 0.085938
-0.125000 1.500000 0.085938
-0.121094 1.500000 0.089844
-0.125000 1.500000 0.089844
-0.121094 1.500000 0.093750
-0.125000 1.500000 0.093750
-0.121094 1.500000 0.097656
-0.125000 1.500000 0.097656
-0.121094 1.500000 0.101562
-0.125000 1.500000 0.101562
-0.121094 1.500000 0.105469
-0.125000 1.500000 0.105469
-0.121094 1.500000 0.109375
-0.125000 1.500000 0.109375
-0.121094 1.500000 0.113281
-0.125000 1.500000 0.113281
-0.121094 1.500000 0.117188
-0.125000 1.500000 0.117188
-0.121094 1.500000 0.121094
-0.125000 1.500000 0.121094
-0.121094 1.500000 0.125000
-0.125000 1.500000 0.125000
-0.117188 1.500000 -0.121094
-0.117188 1.500000 -0.125000
-0.117188 1.500000 -0.117188
-0.117188 1.500000 -0.113281
-0.117188 1.500000 -0.109375
-0.117188 1.500000 -0.105469
-0.117188 1.500000 -0.101562
-0.117188 1.500000 -0.097656
-0.117188 1.500000 -0.093750
-0.117188 1.500000 -0.089844
-0.117188 1.500000 -0.085938
-0.117188 1.500000 -0.082031
-0.117188 1.500000 -0.078125
-0.117188 1.500000 -0.074219
-0.117188 1.500000 -0.070312
-0.117188 1.500000 -0.066406
-0.117188 1.500000 -0.062500
-0.117188 1.500000 -0.058594
-0.117188 1.500000 -0.054688
-0.117188 1.500000 -0.050781
-0.117188 1.500000 -0.046875
-0.117188 1.500000 -0.042969
-0.117188 1.500000 -0.039062
-0.117188 1.500000 -0.035156
-0.117188 1.500000 -0.031250
-0.117188 1.500000 -0.027344
-0.117188 1.500000 -0.023438
-0.117188 1.500000 -0.019531
-0.117188 1.500000 -0.015625
-0.117188 1.500000 -0.011719
-0.117188 1.500000 -0.007812
-0.117188 1.500000 -0.003906
-0.117188 1.500000 0.000000
-0.117188 1.500000 0.003906
-0.117188 1.500000 0.007812
-0.117188 1.500000 0.011719
-0.117188 1.500000 0.015625
-0.117188 1.500000 0.019531
-0.117188 1.500000 0.023438
-0.117188 1.500000 0.027344
-0.117188 1.500000 0.031250
-0.117188 1.500000 0.035156
-0.117188 1.500000 0.039062
-0.117188 1.500000 0.042969
-0.117188 1.500000 0.046875
-0.117188 1.500000 0.050781
-0.117188 1.500000 0.054688
-0.117188 1.500000 0.058594
-0.117188 1.500000 0.062500
-0.117188 1.500000 0.066406
-0.117188 1.500000 0.070312
-0.117188 1.500000 0.074219
-0.117188 1.500000 0.078125
-0.117188 1.500000 0.082031
-0.117188 1.500000 0.085938
-0.117188 1.500000 0.089844
-0.117188 1.500000 0.093750
-0.117188 1.500000 0.097656
-0.117188 1.500000 0.101562
-0.117188 1.500000 0.105469
-0.117188 1.500000 0.109375
-0.117188 1.500000 0.113281
-0.117188 1.500000 0.117188
-0.117188 1.500000 0.121094
-0.117188 1.500000 0.125000
-0.113281 1.500000 -0.121094
-0.113281 1.500000 -0.125000
-0.113281 1.500000 -0.117188
-0.113281 1.500000 -0.113281
-0.113281 1.500000 -0.109375
-0.113281 1.500000 -0.105469
-0.113281 1.500000 -0.101562
-0.113281 1.500000 -0.097656
-0.113281 1.500000 -0.093750
-0.113281 1.500000 -0.089844
-0.113281 1.500000 -0.085938
-0.113281 1.500000 -0.082031
-0.113281 1.500000 -0.078125
-0.113281 1.500000 -0.074219
-0.113281 1.500000 -0.070312
-0.113281 1.500000 -0.066406
-0.113281 1.500000 -0.062500
-0.113281 1.500000 -0.058594
-0.113281 1.500000 -0.054688
-0.113281 1.500000 -0.050781
-0.113281 1.500000 -0.046875
-0.113281 1.500000 -0.042969
-0.113281 1.500000 -0.039062
-0.113281 1.500000 -0.035156
-0.113281 1.500000 -0.031250
-0.113281 1.500000 -0.027344
-0.113281 1.500000 -0.023438
-0.113281 1.500000 -0.019531
-0.113281 1.500000 -0.015625
-0.113281 1.500000 -0.011719
-0.113281 1.500000 -0.007812
-0.113281 1.500000 -0.003906
-0.113281 1.500000 0.000000
-0.113281 1.500000 0.003906
-0.113281 1.500000 0.007812
-0.113281 1.500000 0.011719
-0.113281 1.500000 0.015625
-0.113281 1.500000 0.019531
-0.113281 1.500000 0.023438
-0.113281 1.500000 0.027344
-0.113281 1.500000 0.031250
-0.113281 1.500000 0.035156
-0.113281 1.500000 0.039062
-0.113281 1.500000 0.042969
-0.113281 1.500000 0.046875
-0.113281 1.500000 0.050781
-0.113281 1.500000 0.054688
-0.113281 1.500000 0.058594
-0.113281 1.500000 0.062500
-0.113281 1.500000 0.066406
-0.113281 1.500000 0.070312
-0.113281 1.500000 0.074219
-0.113281 1.500000 0.078125
-0.113281 1.500000 0.082031
-0.113281 1.500000 0.085938
-0.113281 1.500000 0.089844
-0.113281 1.500000 0.093750
-0.113281 1.500000 0.097656
-0.113281 1.500000 0.101562
-0.113281 1.500000 0.105469
-0.113281 1.500000 0.109375
-0.113281 1.500000 0.113281
-0.113281 1.500000 0.117188
-0.113281 1.500000 0.121094
-0.113281 1.500000 0.125000
-0.109375 1.500000 -0.121094
-0.109375 1.500000 -0.125000
-0.109375 1.500000 -0.117188
-0.109375 1.500000 -0.113281
-0.109375 1.500000 -0.109375
-0.109375 1.500000 -0.105469
-0.109375 1.500000 -0.101562
-0.109375 1.500000 -0.097656
-0.109375 1.500000 -0.093750
-0.109375 1.500000 -0.089844
-0.109375 1.500000 -0.085938
-0.109375 1.500000 -0.082031
-0.109375 1.500000 -0.078125
-0.109375 1.500000 -0.074219
-0.109375 1.500000 -0.070312
-0.109375 1.500000 -0.066406
-0.109375 1.500000 -0.062500
-0.109375 1.500000 -0.058594
-0.109375 1.500000 -0.054688
-0.109375 1.500000 -0.050781
-0.109375 1.500000 -0.046875
-0.109375 1.500000 -0.042969
-0.109375 1.500000 -0.039062
-0.109375 1.500000 -0.035156
-0.109375 1.500000 -0.031250
-0.109375 1.500000 -0.027344
-0.109375 1.500000 -0.023438
-0.109375 1.500000 -0.019531
-0.109375 1.500000 -0.015625
-0.109375 1.500000 -0.011719
-0.109375 1.500000 -0.007812
-0.109375 1.500000 -0.003906
-0.109375 1.500000 0.000000
-0.109375 1.500000 0.003906
-0.109375 1.500000 0.007812
-0.109375 1.500000 0.011719
-0.109375 1.500000 0.015625
-0.109375 1.500000 0.019531
-0.109375 1.500000 0.023438
-0.109375 1.500000 0.027344
-0.109375 1.500000 0.031250
-0.109375 1.500000 0.035156
-0.109375 1.500000 0.039062
-0.109375 1.500000 0.042969
-0.109375 1.500000 0.046875
-0.109375 1.500000 0.050781
-0.109375 1.500000 0.054688
-0.109375 1.500000 0.058594
-0.109375 1.500000 0.062500
-0.109375 1.500000 0.066406
-0.109375 1.500000 0.070312
-0.109375 1.500000 0.074219
-0.109375 1.500000 0.078125
-0.109375 1.500000 0.082031
-0.109375 1.500000 0.085938
-0.109375 1.500000 0.089844
-0.109375 1.500000 0.093750
-0.109375 1.500000 0.097656
-0.109375 1.500000 0.101562
-0.109375 1.500000 0.105469
-0.109375 1.500000 0.109375
-0.109375 1.500000 0.113281
-0.109375 1.500000 0.117188
-0.109375 1.500000 0.121094
-0.109375 1.500000 0.125000
-0.105469 1.500000 -0.121094
-0.105469 1.500000 -0.125000
-0.105469 1.500000 -0.117188
-0.105469 1.500000 -0.113281
-0.105469 1.500000 -0.109375
-0.105469 1.500000 -0.105469
-0.105469 1.500000 -0.101562
-0.105469 1.500000 -0.097656
-0.105469 1.500000 -0.093750
-0.105469 1.500000 -0.089844
-0.105469 1.500000 -0.085938
-0.105469 1.500000 -0.082031
-0.105469 1.500000 -0.078125
-0.105469 1.500000 -0.074219
-0.105469 1.500000 -0.070312
-0.105469 1.500000 -0.066406
-0.105469 1.500000 -0.062500
-0.105469 1.500000 -0.058594
-0.105469 1.500000 -0.054688
-0.105469 1.500000 -0.050781
-0.105469 1.500000 -0.046875
-0.105469 1.500000 -0.042969
[...]
CELL_DATA 8192
SCALARS Front_faces_Incoming_flux double 2
LOOKUP_TABLE default
0 0
0 0
0 0
0 0
0 0
0 0
0 0
0 0
0 0
0 0
0 0
0 0
0 0
0 0
0 0
0 0
0 0
0 0
0 0
0 0
0 0
0 0
0 0
0 0
0 0
0 0
0 0
0 0
0 0
0 0
0 0
0 0
0 0
0 0
0 0
0 0
0 0
0 0
0 0
0 0
0 0
0 0
0 0
0 0
0 0
0 0
0 0
0 0
0 0
0 0
0 0
0 0
0 0
0 0
0 0
0 0
0 0
0 0
0 0
0 0
0 0
0 0
0 0
0 0
0 0
0 0
0 0
0 0
0 0
0 0
0 0
0 0
0 0
0 0
0 0
0 0
0 0
0 0
0 0
0 0
0 0
0 0
0 0
0 0
0 0
0 0
0 0
0 0
0 0
0 0
0 0
0 0
0 0
0 0
0 0
0 0
0 0
0 0
0 0
0 0
0 0
0 0
0 0
0 0
0 0
0 0
0 0
0 0
0 0
0 0
0 0
0 0
0 0
0 0
0 0
0 0
0 0
0 0
0 0
0 0
0 0
0 0
0 0
0 0
0 0
0 0
0 0
0 0
0 0
0 0
0 0
0 0
0 0
0 0
0 0
0 0
0 0
0 0
0 0
0 0
0 0
0 0
0 0
0 0
0 0
0 0
0 0
0 0
0 0
0 0
0 0
0 0
0 0
0 0
0 0
0 0
0 0
0 0
0 0
0 0
0 0
0 0
0 0
0 0
0 0
0 0
0 0
0 0
0 0
0 0
0 0
0 0
0 0
0 0
0 0
0 0
0 0
0 0
0 0
0 0
0 0
0 0
0 0
0 0
0 0
0 0
0 0
0 0
0 0
0 0
0 0
0 0
0 0
0 0
0 0
0 0
0 0
0 0
0 0
0 0
0 0
0 0
0 0
0 0
0 0
0 0
0 0
0 0
0 0
0 0
0 0
0 0
0 0
0 0
0 0
0 0
0 0
0 0
0 0
0 0
0 0
0 0
0 0
0 0
0 0
0 0
0 0
0 0
0 0
0 0
0 0
0 0
0 0
0 0
0 0
0 0
0 0
0 0
0 0
0 0
0 0
0 0
0 0
0 0
0 0
0 0
0 0
0 0
0 0
0 0
0 0
0 0
0 0
0 0
0 0
0 0
0 0
0 0
0 0
0 0
0 0
0 0
0 0
0 0
0 0
0 0
0 0
0 0
0 0
0 0
0 0
0 0
0 0
0 0
0 0
0 0
0 0
0 0
0 0
0 0
0 0
0 0
0 0
0 0
0 0
0 0
0 0
0 0
0 0
0 0
0 0
0 0
0 0
0 0
0 0
0 0
0 0
0 0
0 0
0 0
0 0
0 0
0 0
0 0
0 0
0 0
0 0
0 0
0 0
0 0
0 0
0 0
0 0
0 0
0 0
0 0
0 0
0 0
0 0
0 0
0 0
0 0
0 0
0 0
0 0
0 0
0 0
0 0
0 0
0 0
0 0
0 0
0 0
0 0
0 0
0 0
0 0
0 0
0 0
0 0
0 0
0 0
0 0
0 0
0 0
0 0
0 0
0 0
0 0
0 0
0 0
0 0
0 0
0 0
0 0
0 0
0 0
0 0
0 0
0 0
0 0
0 0
0 0
0 0
0 0
0 0
0 0
0 0
0 0
0 0
0 0
0 0
0 0
0 0
0 0
0 0
0 0
0 0
0 0
0 0
0 0
0 0
0 0
0 0
0 0
0 0
0 0
0 0
0 0
0 0
0 0
0 0
0 0
0 0
0 0
0 0
0 0
0 0
0 0
0 0
0 0
0 0
0 0
0 0
0 0
0 0
0 0
0 0
0 0
0 0
0 0
0 0
0 0
0 0
0 0
0 0
0 0
0 0
0 0
0 0
0 0
0 0
0 0
0 0
0 0
0 0
0 0
0 0
0 0
0 0
0 0
0 0
0 0
0 0
0 0
0 0
0 0
0 0
0 0
0 0
0 0
0 0
0 0
0 0
0 0
0 0
0 0
0 0
0 0
0 0
0 0
0 0
0 0
0 0
0 0
0 0
0 0
0 0
0 0
0 0
0 0
0 0
0 0
0 0
0 0
0 0
0 0
0 0
0 0
0 0
0 0
0 0
0 0
0 0
0 0
0 0
0 0
0 0
0 0
0 0
0 0
0 0
0 0
0 0
0 0
0 0
0 0
0 0
0 0
0 0
0 0
0 0
0 0
0 0
0 0
0 0
0 0
0 0
0 0
0 0
0 0
0 0
0 0
0 0
0 0
0 0
0 0
0 0
0 0
0 0
0 0
0 0
0 0
0 0
0 0
0 0
0 0
0 0
0 0
0 0
0 0
0 0
0 0
0 0
0 0
0 0
0 0
0 0
0 0
0 0
0 0
0 0
0 0
0 0
0 0
0 0
0 0
0 0
0 0
0 0
0 0
0 0
0 0
0 0
0 0
0 0
0 0
0 0
0 0
0 0
0 0
0 0
0 0
0 0
0 0
0 0
0 0
0 0
0 0
0 0
0 0
0 0
0 0
0 0
0 0
0 0
0 0
0 0
0 0
0 0
0 0
0 0
0 0
0 0
0 0
0 0
0 0
0 0
0 0
0 0
0 0
0 0
0 0
0 0
0 0
0 0
0 0
0 0
0 0
0 0
0 0
0 0
0 0
0 0
0 0
0 0
0 0
0 0
0 0
0 0
0 0
0 0
0 0
0 0
0 0
0 0
0 0
0 0
0 0
0 0
0 0
0 0
0 0
0 0
0 0
0 0
0 0
0 0
0 0
0 0
0 0
0 0
0 0
0 0
0 0
0 0
0 0
0 0
0 0
0 0
0 0
0 0
0 0
0 0
0 0
0 0
0 0
0 0
0 0
0 0
0 0
0 0
0 0
0 0
0 0
0 0
0 0
0 0
0 0
0 0
0 0
0 0
0 0
0 0
0 0
0 0
0 0
0 0
0 0
0 0
0 0
0 0
0 0
0 0
0 0
0 0
0 0
0 0
0 0
0 0
0 0
0 0
0 0
0 0
0 0
0 0
0 0
0 0
0 0
0 0
0 0
0 0
0 0
0 0
0 0
0 0
0 0
0 0
0 0
0 0
0 0
0 0
0 0
0 0
0 0
0 0
0 0
0 0
0 0
0 0
0 0
0 0
0 0
0 0
0 0
0 0
0 0
0 0
0 0
0 0
0 0
0 0
0 0
0 0
0 0
0 0
0 0
0 0
0 0
0 0
0 0
0 0
0 0
0 0
0 0
0 0
0 0
0 0
0 0
0 0
0 0
0 0
0 0
0 0
0 0
0 0
0 0
0 0
0 0
0 0
0 0
0 0
0 0
0 0
0 0
0 0
0 0
0 0
0 0
0 0
0 0
0 0
0 0
0 0
0 0
0 0
0 0
0 0
0 0
0 0
0 0
0 0
0 0
0 0
0 0
0 0
0 0
0 0
0 0
0 0
0 0
0 0
0 0
0 0
0 0
0 0
0 0
0 0
0 0
0 0
0 0
0 0
0 0
0 0
0 0
0 0
0 0
0 0
0 0
0 0
0 0
0 0
0 0
0 0
0 0
0 0
0 0
0 0
0 0
0 0
0 0
0 0
0 0
0 0
0 0
0 0
0 0
0 0
0 0
0 0
0 0
0 0
0 0
0 0
0 0
0 0
0 0
0 0
0 0
0 0
0 0
0 0
0 0
0 0
0 0
0 0
0 0
0 0
0 0
0 0
0 0
0 0
0 0
0 0
0 0
0 0
0 0
0 0
0 0
0 0
0 0
0 0
0 0
0 0
0 0
0 0
0 0
0 0
0 0
0 0
0 0
0 0
0 0
0 0
0 0
0 0
0 0
0 0
0 0
0 0
0 0
0 0
0 0
0 0
0 0
0 0
0 0
0 0
0 0
0 0
0 0
0 0
0 0
0 0
0 0
0 0
0 0
0 0
0 0
0 0
0 0
0 0
0 0
0 0
0 0
0 0
0 0
0 0
0 0
0 0
0 0
0 0
0 0
0 0
0 0
0 0
0 0
0 0
0 0
0 0
0 0
0 0
0 0
0 0
0 0
0 0
0 0
0 0
0 0
0 0
0 0
0 0
0 0
0 0
0 0
0 0
0 0
0 0
0 0
0 0
0 0
0 0
0 0
0 0
0 0
0 0
0 0
0 0
0 0
0 0
0 0
0 0
0 0
0 0
0 0
0 0
0 0
0 0
0 0
0 0
0 0
0 0
0 0
0 0
0 0
0 0
0 0
0 0
0 0
0 0
0 0
0 0
0 0
0 0
0 0
0 0
0 0
0 0
0 0
0 0
0 0
0 0
0 0
0 0
0 0
0 0
0 0
0 0
0 0
0 0
0 0
0 0
0 0
0 0
0 0
0 0
0 0
0 0
0 0
0 0
0 0
0 0
0 0
0 0
0 0
0 0
0 0
0 0
0 0
0 0
0 0
0 0
0 0
0 0
0 0
0 0
0 0
0 0
0 0
0 0
0 0
0 0
0 0
0 0
0 0
0 0
0 0
0 0
0 0
0 0
0 0
0 0
0 0
0 0
0 0
0 0
0 0
0 0
0 0
0 0
0 0
0 0
0 0
0 0
0 0
0 0
0 0
0 0
0 0
0 0
0 0
0 0
0 0
0 0
0 0
0 0
0 0
0 0
0 0
0 0
0 0
0 0
0 0
0 0
0 0
0 0
0 0
0 0
0 0
0 0
0 0
0 0
0 0
0 0
0 0
0 0
0 0
0 0
0 0
0 0
0 0
0 0
0 0
0 0
0 0
0 0
0 0
0 0
0 0
0 0
0 0
0 0
0 0
0 0
0 0
0 0
0 0
0 0
0 0
0 0
0 0
0 0
0 0
0 0
0 0
0 0
0 0
0 0
0 0
0 0
0 0
0 0
0 0
0 0
0 0
0 0
0 0
0 0
0 0
0 0
0 0
0 0
0 0
0 0
0 0
0 0
0 0
0 0
0 0
0 0
0 0
0 0
0 0
0 0
0 0
0 0
0 0
0 0
0 0
0 0
0 0
0 0
0 0
0 0
0 0
0 0
0 0
0 0
0 0
0 0
0 0
0 0
0 0
0 0
0 0
0 0
0 0
0 0
0 0
0 0
0 0
0 0
0 0
0 0
0 0
0 0
0 0
0 0
0 0
0 0
0 0
0 0
0 0
0 0
0 0
0 0
0 0
0 0
0 0
0 0
0 0
0 0
0 0
0 0
0 0
0 0
0 0
0 0
0 0
0 0
0 0
0 0
0 0
0 0
0 0
0 0
0 0
0 0
0 0
0 0
0 0
0 0
0 0
0 0
0 0
0 0
0 0
0 0
0 0
0 0
0 0
0 0
0 0
0 0
0 0
0 0
0 0
0 0
0 0
0 0
0 0
0 0
0 0
0 0
0 0
0 0
0 0
0 0
0 0
0 0
0 0
0 0
0 0
0 0
0 0
0 0
0 0
0 0
0 0
0 0
0 0
0 0
0 0
0 0
0 0
0 0
0 0
0 0
0 0
0 0
0 0
0 0
0 0
0 0
0 0
0 0
0 0
0 0
0 0
0 0
0 0
0 0
0 0
0 0
0 0
0 0
0 0
0 0
0 0
0 0
0 0
0 0
0 0
0 0
0 0
0 0
0 0
0 0
0 0
0 0
0 0
0 0
0 0
0 0
0 0
0 0
0 0
0 0
0 0
0 0
0 0
0 0
0 0
0 0
0 0
0 0
0 0
0 0
0 0
0 0
0 0
0 0
0 0
0 0
0 0
0 0
0 0
0 0
0 0
0 0
0 0
0 0
0 0
0 0
0 0
0 0
0 0
0 0
0 0
0 0
0 0
0 0
0 0
0 0
0 0
0 0
0 0
0 0
0 0
0 0
0 0
0 0
0 0
0 0
0 0
0 0
0 0
0 0
0 0
0 0
0 0
0 0
0 0
0 0
0 0
0 0
0 0
0 0
0 0
0 0
0 0
0 0
0 0
0 0
0 0
0 0
0 0
0 0
0 0
0 0
0 0
0 0
0 0
0 0
0 0
0 0
0 0
0 0
0 0
0 0
0 0
0 0
0 0
0 0
0 0
0 0
0 0
0 0
0 0
0 0
0 0
0 0
0 0
0 0
0 0
0 0
0 0
0 0
0 0
0 0
0 0
0 0
0 0
0 0
0 0
0 0
0 0
0 0
0 0
0 0
0 0
0 0
0 0
0 0
0 0
0 0
0 0
0 0
0 0
0 0
0 0
0 0
0 0
0 0
0 0
0 0
0 0
0 0
0 0
0 0
0 0
0 0
0 0
0 0
0 0
0 0
0 0
0 0
0 0
0 0
0 0
0 0
0 0
0 0
0 0
0 0
0 0
0 0
0 0
0 0
0 0
0 0
0 0
0 0
0 0
0 0
0 0
0 0
0 0
0 0
0 0
0 0
0 0
0 0
0 0
0 0
0 0
0 0
0 0
0 0
0 0
0 0
0 0
0 0
0 0
0 0
0 0
0 0
0 0
0 0
0 0
0 0
0 0
0 0
0 0
0 0
0 0
0 0
0 0
0 0
0 0
0 0
0 0
0 0
0 0
0 0
0 0
0 0
0 0
0 0
0 0
0 0
0 0
0 0
0 0
0 0
0 0
0 0
0 0
0 0
0 0
0 0
0 0
0 0
0 0
0 0
0 0
0 0
0 0
0 0
0 0
0 0
0 0
0 0
0 0
0 0
0 0
0 0
0 0
0 0
0 0
0 0
0 0
0 0
0 0
0 0
0 0
0 0
0 0
0 0
0 0
0 0
0 0
0 0
0 0
0 0
0 0
0 0
0 0
0 0
0 0
0 0
0 0
0 0
0 0
0 0
0 0
0 0
0 0
0 0
0 0
0 0
0 0
0 0
0 0
0 0
0 0
0 0
0 0
0 0
0 0
0 0
0 0
0 0
0 0
0 0
0 0
0 0
0 0
0 0
0 0
0 0
0 0
0 0
0 0
0 0
19.3362 19.3362
0 0
38.6725 27.3456
0 0
310.425 77.6063
19.4166 19.4166
835.147 127.359
77.7659 38.883
1517.69 171.844
272.427 72.8094
2761.78 231.762
992.209 138.937
4020.79 279.464
1668.56 179.925
4869.53 307.361
1978.61 195.911
4461.82 294.203
1630.39 177.891
5004.67 311.576
2076.18 200.712
4131.82 283.108
1590.07 175.594
4737.8 303.305
2017.6 197.842
4892.53 308.198
1842.97 189.085
4426.01 293.118
1882.44 191.133
4603.04 298.997
1882.99 191.189
4715.7 302.51
2057.14 199.807
4989.94 311.261
1803.5 187.014
4661.41 300.891
1650.06 178.974
4697.75 301.981
1630.16 177.865
4736.47 303.219
1728.27 183.196
4581.92 298.256
1650.21 178.99
4874.31 307.661
1495.01 170.372
4621.65 299.575
1572.7 174.744
4601.12 298.873
1475.56 169.258
4911.79 308.799
1883.23 191.213
4815.09 305.756
1357.92 162.303
4698.36 302.02
1436.03 166.935
4814.17 305.698
1669.75 180.054
4816.29 305.832
1377.74 163.508
4154.8 284.015
1767.01 185.233
4720.21 302.799
2038.5 198.937
4852.2 306.878
1843.46 189.135
4520.34 296.136
1726.87 183.048
4775.99 304.504
1881.53 191.04
4520.7 296.159
2037.88 198.877
4405.35 292.392
2017 197.783
4249.72 287.169
1939.69 193.969
4386.93 291.813
1302.09 159.076
2664.5 227.643
720.089 118.382
1749.52 184.416
291.951 75.3814
1243.14 155.393
175.123 58.3745
310.345 77.5864
19.412 19.412
19.3297 19.3297
0 0
19.3297 19.3297
0 0
0 0
0 0
0 0
0 0
0 0
0 0
0 0
0 0
0 0
0 0
0 0
0 0
0 0
0 0
0 0
0 0
0 0
0 0
0 0
0 0
0 0
0 0
0 0
0 0
0 0
0 0
0 0
0 0
0 0
0 0
0 0
0 0
0 0
0 0
0 0
0 0
0 0
0 0
0 0
0 0
0 0
174.026 58.0087
984.713 137.888
928.139 133.965
2319.51 211.742
1898.67 191.795
3582.21 263.369
2850.4 235.097
5963.74 339.814
4112.04 282.415
8478.03 405.094
6705.6 360.493
13532.4 511.109
9803.93 435.406
14067.9 521.032
9840.84 436.186
13978.8 519.515
10057.3 441.039
13627 512.854
10309.2 446.537
13878.4 517.571
10624.3 453.427
13958 519.1
9984.79 439.552
13691.6 514.192
10602.9 452.928
12785.2 496.907
9670.96 432.495
13142.4 503.982
9383.83 426.095
12424.1 489.954
9502.75 428.849
13391.1 508.679
9929.17 438.378
12152.6 484.549
9235.9 422.878
13022 501.582
9386.01 426.192
11614.9 473.775
10065.3 441.385
12041.2 482.415
9194.46 421.866
12702.4 495.56
9970.35 439.34
12005 481.737
8983.2 417.03
12236.2 486.337
9718.27 433.742
13049.6 502.271
9603.14 431.188
12363.8 488.717
9193.23 421.81
12520.5 491.847
10312.8 446.693
13374.7 508.423
8556.77 407
12341.8 488.231
9617.08 431.381
12650.1 494.276
10585.5 452.598
13092.2 502.799
9636.24 431.806
13615.8 512.797
8782.99 412.203
13075.5 502.526
10062.9 441.285
12667.5 494.58
10407 448.676
13324.1 507.233
9732.39 433.942
13353.3 507.613
10001.5 439.862
13527.8 510.934
9978.55 439.28
12794.4 496.891
9151.49 420.785
10076 441.434
6651.33 359.135
6296.92 349.289
4190.5 285.126
3734.61 268.823
2888.62 236.644
2881.47 236.059
2071.43 200.252
984.54 137.864
1004.66 139.322
289.626 74.7812
57.989 33.4799
0 0
0 0
0 0
0 0
0 0
0 0
0 0
0 0
0 0
0 0
0 0
0 0
0 0
0 0
0 0
0 0
0 0
0 0
0 0
0 0
0 0
0 0
0 0
0 0
0 0
0 0
0 0
0 0
0 0
0 0
0 0
0 0
0 0
0 0
0 0
0 0
0 0
0 0
0 0
0 0
0 0
0 0
1574.03 173.826
1886.3 190.546
4381.95 290.206
4183.61 284.004
7559.7 381.341
5940.53 338.496
11737.3 472.267
10968.4 456.364
21687.8 636.426
17235.8 571.894
26771.1 708.034
20881.2 630.783
28090.7 727.042
23034.9 663.747
28563.8 734.255
21348.6 639.459
26636.6 710.586
20973.3 634.165
25033.8 690.325
20291.9 623.871
24937.1 689.458
19129.2 606.141
24934.7 690.33
19971.2 619.287
25704 701.167
20114.5 621.342
24419.6 683.373
21336.1 640.115
24775.3 688.482
20002.8 619.963
22889.7 661.885
20302.4 624.47
23768.8 674.461
21377.4 640.772
23508.1 670.849
20580.7 628.873
24517.9 685.036
20428.3 626.562
23253.1 667.112
21395.7 641.32
22497.8 656.335
20978.5 634.832
23183.9 666.492
21501 642.745
23078.5 664.839
20247.5 623.662
23072.5 664.671
20808.8 632.309
24308.6 682.395
20310 624.697
24906.9 690.802
20413.9 626.123
23651.9 672.764
20128.2 621.762
24344.1 682.586
20461.2 626.986
23565.4 671.403
19939.1 618.887
25077.9 692.901
20548.5 628.191
24870.6 689.581
21869.2 648.026
24940.5 689.997
21115.6 636.684
24591.3 684.599
22015.2 649.799
26140.5 704.575
20261.5 623.012
27193.2 718.034
21250.5 637.693
26895.5 712.568
21917.2 647.067
28098 727.622
20603.1 626.424
24163.7 672.909
13918.6 514.892
13878.5 511.931
9163.94 419.732
8052.97 393.419
5993.72 339.876
5186.66 315.655
3276.84 251.324
2303.33 210.267
1749.37 183.386
154.318 54.5599
38.4996 27.2236
0 0
0 0
0 0
0 0
0 0
0 0
0 0
0 0
0 0
0 0
0 0
0 0
0 0
0 0
0 0
0 0
0 0
0 0
0 0
0 0
0 0
0 0
0 0
0 0
0 0
0 0
0 0
0 0
0 0
0 0
0 0
0 0
0 0
0 0
0 0
0 0
0 0
0 0
0 0
0 0
0 0
0 0
2152.7 202.52
2995.53 239.082
5431.18 321.739
6860.3 362.094
11123.4 460.334
11238.2 463.476
21329.7 628.356
25477.1 684.908
40995.3 865.622
39800.7 855.654
47003.5 927.845
44219.8 903.171
51946.8 976.815
45706.5 919.224
50606.8 964.008
42688.5 887.585
51160.9 969.417
43290.2 896.039
48017.5 939.387
42204.9 884.606
51300.6 970.865
42304.2 886.466
51721.7 975.589
41538.6 879.246
50983.5 969.42
40584.9 870.468
50107.9 960.585
39110.7 855.047
49948.1 960.12
39910.8 864.429
49377.5 955.311
37645.3 841.27
51899.9 979.825
36315 826.628
47636.7 938.05
36767 832.526
49340.5 955.427
36327.7 828.45
48864.2 951.615
34530.4 807.662
47613.9 939.967
35884.5 823.696
47487.4 938.383
35526.6 819.773
47440.6 937.976
35557.7 819.249
49892 961.349
37106.5 836.741
47860.6 941.382
35972.7 823.849
49433.4 956.134
37281.2 837.263
49005.4 951.452
37912 843.477
49373.2 954.698
39241 857.228
49393.4 954.063
39274.6 856.979
49828.1 958.393
37623.7 837.595
50333.8 963.125
39382.6 856.311
49597.9 955.103
41664.9 880.538
51070.4 969.823
42643 889.074
50622.7 964.202
41088.2 871.811
50587.3 964.428
42337.2 885.13
50786.3 966.634
42796.8 890.029
50344.5 961.758
40450.6 863.811
44821.3 906.318
36476.9 818.941
29915 740.317
17314.9 571.446
13006.4 497.723
9296.36 421.71
7019.33 365.936
5338.98 319.649
3793.12 268.902
2314.14 210.383
0 0
0 0
0 0
0 0
0 0
0 0
0 0
0 0
0 0
0 0
0 0
0 0
0 0
0 0
0 0
0 0
0 0
0 0
0 0
0 0
0 0
0 0
0 0
0 0
0 0
0 0
0 0
0 0
0 0
0 0
0 0
0 0
0 0
0 0
0 0
0 0
0 0
0 0
0 0
0 0
0 0
0 0
0 0
0 0
1624.74 175.237
4070.42 277.009
6942.04 361.479
9339.79 419.476
15762 542.238
18506.8 588.308
34106.7 786.585
40556.1 856.488
57355.8 1017.84
55820.4 1006.22
64298.5 1080.55
59670.8 1041.82
66829.7 1101.06
61340.6 1056.01
64445.7 1080.66
62698 1067.87
69515.8 1121.74
65017.7 1087.61
67736.6 1107.34
63377.5 1073.29
70133 1127
62829.2 1067.54
70669.5 1129.58
66849.5 1100.79
70380.1 1126.81
66002.5 1093.63
70194.9 1125.46
66382.7 1096.09
70505.4 1127.86
68565.3 1114.13
71289.4 1133.59
68191.2 1110.69
71359.7 1133.34
70103.8 1124.61
73614.6 1151.73
71864 1137.54
70568 1127.61
74167.8 1156.31
73727.7 1151.87
71761.5 1137.25
73637.6 1151.98
73412.6 1150.27
71130.2 1132.06
73666.2 1151.82
74302.7 1157.45
72422.4 1141.96
69896.7 1122.86
72655.6 1144.17
71926.9 1137.82
72103.4 1141.53
73924.3 1154.47
71006.6 1133.06
72735 1144.06
68862 1115.69
70827.3 1130.39
68760.6 1116.52
71095.1 1132.02
66637.1 1098.64
69577.9 1119.85
67292.9 1104.65
71999.5 1140.02
64012.5 1078.19
68611.3 1113.55
62719.7 1067.38
67023.7 1102.02
64009.1 1078.6
68044.6 1109.83
62749.1 1068.27
67809.3 1108.08
60982.6 1053.16
67068.8 1102.9
62422.4 1065.93
66002 1094.35
60151.4 1045.61
57774.5 1022.29
54029.6 988.947
43632.8 887.202
30787.4 750.754
19769.2 606.271
13755 509.218
11127.7 457.469
6604.03 353.563
4241.26 282.799
2204.27 204.685
0 0
0 0
0 0
0 0
0 0
0 0
0 0
0 0
0 0
0 0
0 0
0 0
0 0
0 0
0 0
0 0
0 0
0 0
0 0
0 0
0 0
0 0
0 0
0 0
0 0
0 0
0 0
0 0
0 0
0 0
0 0
0 0
0 0
0 0
0 0
0 0
0 0
0 0
0 0
0 0
0 0
0 0
0 0
0 0
812.237 123.885
4433.42 288.682
8900.83 405.371
12144.8 474.524
21415.2 623.488
25725.8 683.921
42304.3 871.755
49538.6 943.331
62231.6 1056.87
64289 1074.99
71875.9 1137.12
72026.1 1140.46
73105.6 1147.07
71804.8 1137.52
73332.4 1149.4
71732.9 1136.38
72920.1 1146.31
71009.9 1130.63
73780.5 1152.56
71217.4 1132.93
73554.3 1150.55
72407.4 1141.86
71777.7 1137.26
72160.9 1140.67
73806.7 1153.61
73009.6 1147.46
72348.8 1141.5
71777 1136.56
72305.9 1141.46
72756.7 1144.09
74349.2 1155.81
74542.9 1158.13
72062.9 1140.07
73038.4 1146.79
76112.3 1170.21
75815.5 1169.05
70877 1129.93
71521.2 1135.79
74293.8 1156.35
70350.5 1125.72
72164.7 1139.65
72985.1 1147.13
71942.4 1138.43
72163.1 1139.59
72071.9 1139.66
72229.6 1140.99
73182.8 1148.66
74442.4 1158.05
71026.8 1131.78
74447.8 1158.16
69865.7 1122.06
72830.2 1146.04
71257 1132.24
71401.5 1133.84
74119.5 1155.86
73169.7 1147.66
72596.1 1142.74
72473.8 1142.77
71314.3 1133.66
71300 1133.14
71361 1132.45
70750.2 1129.35
73447.3 1150.27
72661.2 1144.85
72531.5 1142.95
71760.7 1137.13
74717.9 1159.6
72864.7 1147.2
72671.4 1144.46
71128.8 1132.81
73692 1151.04
72357.7 1142.7
71208.2 1133.01
70893.5 1130.98
69406.8 1115.77
63075.9 1064.98
48601.3 933.5
41684 866.439
26109.1 687.196
21460.9 627.059
13899.6 506.35
8819.65 405.317
4114.22 277.477
1625.74 175.348
0 0
0 0
0 0
0 0
0 0
0 0
0 0
0 0
0 0
0 0
0 0
0 0
0 0
0 0
0 0
0 0
0 0
0 0
0 0
0 0
0 0
0 0
0 0
0 0
0 0
0 0
0 0
0 0
0 0
0 0
0 0
0 0
0 0
0 0
0 0
0 0
0 0
0 0
0 0
0 0
0 0
0 0
0 0
0 0
382.382 85.5107
3003.41 238.234
9153.24 410.951
12719.6 481.764
22654 640.52
28403.5 716.811
44037.7 889.769
50723.3 952.584
66010.5 1088.17
68311.9 1106.81
73128 1147.59
72960.6 1146.27
70932.7 1130.53
72070.9 1139.37
73755.1 1152.93
73793.4 1153.81
73617.9 1151.13
73907.7 1153.16
72742.5 1144.53
73812.2 1153.02
74433.7 1157.65
71198.3 1132.23
70601.3 1127.65
72813.9 1145.01
73248.7 1148
71425.4 1133.56
72929.1 1146.23
73272.6 1149.36
73751.1 1152.64
73256.3 1148.7
72192 1139.6
72241.8 1140.37
75797.8 1168.48
71138.7 1132.65
74666.2 1159.78
73418.4 1149.81
74227.7 1155.73
73258.4 1148.6
74205.8 1156.48
72100.7 1140.43
70799.9 1128.74
70975.1 1131.23
73584.4 1151.45
71417.6 1134.95
72386.4 1142.19
72720.7 1143.93
72545.2 1143.69
72759.4 1144.16
74149.9 1155.63
71699.7 1135.78
73672.6 1151.43
71552.4 1135.26
73408.7 1150.62
74518.5 1159.09
71980.8 1139.22
72929.1 1146.96
73532.5 1150.62
74203.5 1155.64
72609.4 1143.47
70519.2 1125.53
71956 1138.86
75137.6 1162.99
74037 1155.25
73624.6 1150.82
71902.8 1138.78
70303.3 1124.83
74777.1 1160.65
73911.1 1153.22
73873.7 1153.42
71191.2 1132.11
73247.3 1148.68
72745.5 1144.75
72882 1146.23
74660.4 1159.79
70067.2 1121.75
62441.6 1058.44
52113.7 966.375
44983.7 899.403
28044.2 711.631
23034.8 645.361
12714.6 481.564
9284.85 413.182
3476.77 255.683
1001.91 137.655
0 0
0 0
0 0
0 0
0 0
0 0
0 0
0 0
0 0
0 0
0 0
0 0
0 0
0 0
0 0
0 0
0 0
0 0
0 0
0 0
0 0
0 0
0 0
0 0
0 0
0 0
0 0
0 0
0 0
0 0
0 0
0 0
0 0
0 0
0 0
0 0
0 0
0 0
0 0
0 0
0 0
0 0
0 0
0 0
133.71 50.5405
1495.41 168.266
8086.69 386.686
12569.6 479.51
21049.4 618.15
25692.2 680.801
42827.3 876.624
54605.6 988.373
66952.2 1096.6
70765.6 1127.87
73926.9 1153.05
73401.5 1149.24
73849 1152.88
72532.1 1143.21
70689.4 1129.33
73215.2 1147.54
74274.7 1157.44
73057 1146.67
73906.3 1153.55
72431 1142.62
73472.9 1150.41
71737.1 1136.75
71152.6 1131.79
73105.7 1147.99
71908.3 1137.63
72891.7 1145.32
72688.5 1144.15
74985.7 1162.77
72225.8 1140.26
72806.6 1145.42
72855 1145.74
71292.3 1132.96
72102.3 1139.06
71507.4 1135.71
71770.6 1136.77
72093.4 1139.71
72478.2 1141.6
72364.3 1141.59
73364.4 1149.4
74823.9 1161.27
73404.5 1150.02
72692.7 1143.63
73076 1147.55
72861.7 1146.86
72709.8 1145.29
71247.5 1132.87
71499.2 1134.91
73041.5 1146.45
72029.4 1138.27
72465.6 1142.35
69109.4 1115.18
73093.1 1147.95
71954.3 1139.43
75133.8 1163.82
73811.7 1153.75
72729.9 1144.73
74284.3 1156.57
73637.3 1152.95
76378.2 1172.57
73996.1 1154.25
71787.2 1137.12
72287.3 1141.24
71457.1 1135.18
75394.8 1165.05
73421 1150.43
72895.2 1144.89
71955.9 1138.56
73119.3 1147.39
70413.6 1127.12
71565 1134.64
74085.4 1154.77
71597.7 1135.83
70771.1 1129.66
71240.2 1132.2
71157.9 1131.03
66051.4 1090.14
52869.6 972.103
44307.5 890.935
27453.1 704.581
22161 633.132
12712 481.484
9203.28 412.365
2006.74 194.945
381.455 85.3009
0 0
0 0
0 0
0 0
0 0
0 0
0 0
0 0
0 0
0 0
0 0
0 0
0 0
0 0
0 0
0 0
0 0
0 0
0 0
0 0
0 0
0 0
0 0
0 0
0 0
0 0
0 0
0 0
0 0
0 0
0 0
0 0
0 0
0 0
0 0
0 0
0 0
0 0
0 0
0 0
0 0
0 0
0 0
0 0
0 0
381.594 85.3316
6512.89 347.416
11126.8 451.798
20516 610.192
27756.6 708.253
46000.3 907.547
53389.7 977.57
66723.8 1095.46
70227.4 1123.71
72465.2 1142.01
73303.2 1149
72954.7 1145.68
73280.6 1147.65
73270 1149.18
70839.4 1129.05
72075.3 1138.36
73201.6 1147.32
71701 1137.15
72241.2 1140.96
72973.9 1146.46
73591.9 1151.81
72841.2 1144.89
73584.8 1150.41
70493.7 1126.44
72439.3 1142.42
71026.2 1130.88
72939.8 1146.94
73920.3 1153.32
71748.3 1136.16
73414 1149.75
74493.3 1157.39
71975.9 1139.08
72387.6 1141.27
73193.9 1148.27
71796.9 1136.4
71705.1 1136.46
71962.7 1138.61
73756.1 1153.91
73575.8 1151.42
74052.5 1154.97
71773.7 1138.06
73738.6 1152.19
73409.2 1148.86
72245.7 1140.74
73176.3 1148
72898.3 1145.76
75255.2 1164
72523.9 1143.52
73450.9 1150.82
72483.1 1143.28
74204.1 1156.69
72564.1 1143.73
72821.9 1145.12
71409.6 1134.75
72006.1 1138.5
72055.8 1138.98
70377.3 1125.97
72159.4 1139.48
70870.2 1129.87
74851.2 1161.52
70678.8 1128.37
72854 1146.17
74401.8 1157.61
71571.2 1135.72
73718.8 1152.77
74736 1159.96
73244.4 1148.38
73391.9 1150.23
73485.5 1150.15
73129 1147.4
73991.6 1154.84
72538.5 1143.16
73839.9 1154.03
70413.9 1125.63
68600 1110.27
54756.5 990.128
46272.5 910.998
26565.8 693.032
21060.6 617.181
11137.3 451.488
8334.29 392.352
833.908 125.729
114.16 46.6129
0 0
0 0
0 0
0 0
0 0
0 0
0 0
0 0
0 0
0 0
0 0
0 0
0 0
0 0
0 0
0 0
0 0
0 0
0 0
0 0
0 0
0 0
0 0
0 0
0 0
0 0
0 0
0 0
0 0
0 0
0 0
0 0
0 0
0 0
0 0
0 0
0 0
0 0
0 0
0 0
0 0
0 0
0 0
0 0
0 0
0 0
5209.11 311.492
10347.3 435.068
19506.8 595.314
25346 676.6
46945.5 917.528
56601.8 1006.9
65500.4 1085.08
70896.3 1129.65
71820.4 1137.55
73511.1 1149.69