# vtk DataFile Version 2.0
Radiative paths
ASCII
DATASET POLYDATA
POINTS 282 float
-0.421855 0.810450 0.324020
0.408843 -0.005875 0.324020
-0.018825 1.500000 0.038908
-0.529979 0.824482 -0.127716
0.300718 0.008157 -0.127716
0.018263 1.500000 0.013512
-1.142660 0.810201 -0.190392
-0.311962 -0.006123 -0.190392
-0.026802 1.500000 -0.047812
-0.121203 0.815965 -0.061854
0.709495 -0.000359 -0.061854
-0.000675 1.500000 -0.061854
-1.260943 0.811579 0.075854
-0.430245 -0.004745 0.075854
-0.002898 1.500000 -0.066595
-0.262988 0.819318 -0.313614
0.567710 0.002994 -0.313614
0.000844 1.500000 -0.030180
-0.235572 0.830454 -0.402793
0.595125 0.014129 -0.402793
0.032476 1.500000 0.019195
-1.556944 0.813435 0.059918
-0.726246 -0.002890 0.059918
-0.014879 1.500000 0.059918
-1.385625 0.819998 0.156561
-0.554927 0.003674 0.156561
0.011682 1.500000 0.014909
-1.368359 0.825845 0.194220
-0.537661 0.009521 0.194220
0.026734 1.500000 0.053121
-0.462673 0.777746 -0.247071
0.368025 -0.038578 -0.247071
-0.122942 0.818577 0.450459
0.707756 0.002252 0.450459
-0.001178 1.500000 0.025098
-0.394357 0.816010 -0.385726
0.436341 -0.000315 -0.385726
0.010251 1.500000 0.040364
-0.672236 0.824160 -0.018275
0.158461 0.007835 -0.018275
0.017203 1.500000 -0.018275
-0.238174 0.831608 0.276791
0.592524 0.015284 0.276791
0.030312 1.500000 -0.004315
-0.436535 0.793193 -0.401030
0.394163 -0.023132 -0.401030
-0.293923 0.790837 -0.237109
0.536775 -0.025488 -0.237109
-1.192515 0.833310 0.046941
-0.361817 0.016985 0.046941
0.059359 1.500000 0.046941
-1.548612 0.811102 -0.402402
-0.717915 -0.005222 -0.402402
-0.005443 1.500000 0.025081
-0.515237 0.835334 -0.438048
0.315461 0.019010 -0.438048
0.035060 1.500000 -0.017447
-0.228349 0.838564 0.138484
0.602349 0.022240 0.138484
0.042770 1.500000 -0.001411
-0.692822 0.813530 0.127077
0.137876 -0.002795 0.127077
-0.004389 1.500000 -0.015188
-0.592826 0.782404 -0.371263
0.237872 -0.033921 -0.371263
-1.213345 0.821424 -0.383543
-0.382648 0.005100 -0.383543
0.041904 1.500000 0.041009
-0.851976 0.798971 0.375930
-0.021279 -0.017353 0.375930
-0.021279 1.500000 -0.054998
-0.796562 0.830402 -0.422568
0.034136 0.014078 -0.422568
0.034136 1.500000 -0.000566
-0.871678 0.788276 -0.362269
-0.040980 -0.028048 -0.362269
-1.140701 0.808181 -0.043081
-0.310004 -0.008144 -0.043081
-0.024462 1.500000 -0.043081
-0.227420 0.838573 0.276079
0.603278 0.022249 0.276079
0.043703 1.500000 -0.003708
-0.968662 0.817797 -0.011783
-0.137964 0.001473 -0.011783
0.003897 1.500000 -0.011783
-0.639794 0.839602 0.002028
0.190904 0.023278 0.002028
0.051107 1.500000 0.002028
-1.063934 0.832004 -0.136866
-0.233236 0.015679 -0.136866
0.047796 1.500000 0.003650
-1.199660 0.838595 -0.347253
-0.368962 0.022270 -0.347253
0.050713 1.500000 -0.067470
-0.821097 0.825800 -0.332941
0.009601 0.009476 -0.332941
0.009601 1.500000 -0.050735
-0.774169 0.840029 0.069720
0.056528 0.023704 0.069720
0.056528 1.500000 0.069720
-0.866633 0.796162 -0.239318
-0.035935 -0.020163 -0.239318
-0.625171 0.842916 -0.075104
0.205527 0.026591 -0.075104
0.066044 1.500000 0.064378
-0.404907 0.816417 0.285993
0.425791 0.000092 0.285993
-0.000183 1.500000 0.002011
-0.433110 0.807532 -0.476964
0.397588 -0.008792 -0.476964
-0.030909 1.500000 -0.048467
-0.575067 0.801170 -0.019650
0.255631 -0.015154 -0.019650
-0.031238 1.500000 -0.019650
-0.704900 0.818137 -0.484927
0.125798 0.001813 -0.484927
-0.016031 1.500000 -0.059442
-1.400359 0.815960 0.015784
-0.569661 -0.000365 0.015784
-0.001523 1.500000 0.015784
-0.171521 0.778867 -0.117680
0.659177 -0.037457 -0.117680
-0.303783 0.789521 0.015087
0.526915 -0.026803 0.015087
-1.193259 0.836666 -0.205479
-0.362561 0.020342 -0.205479
0.057662 1.500000 -0.065405
-0.746157 0.790466 -0.299557
0.084541 -0.025859 -0.299557
-0.660485 0.833129 -0.202370
0.170213 0.016805 -0.202370
0.029804 1.500000 -0.061961
-0.160915 0.785554 0.413309
0.669782 -0.030771 0.413309
-1.398745 0.815402 -0.275514
-0.568047 -0.000923 -0.275514
0.000302 1.500000 0.008660
-0.421434 0.795181 -0.357345
0.409264 -0.021144 -0.357345
0.404734 -0.005192 -0.352815
1.228953 -0.821892 -0.252275
-1.165938 0.791468 0.375470
-0.335240 -0.024857 0.375470
-1.059851 0.834470 0.428230
-0.229153 0.018146 0.428230
0.051411 1.500000 0.007384
-1.023036 0.787672 0.366484
-0.192338 -0.028652 0.366484
-0.737338 0.792225 -0.125777
0.093360 -0.024100 -0.125777
-0.633365 0.841775 0.125008
0.197333 0.025450 0.125008
0.057742 1.500000 -0.014582
-0.238341 0.832514 -0.147258
0.592357 0.016189 -0.147258
0.030487 1.500000 -0.006791
-0.730601 0.806756 0.491478
0.100096 -0.009569 0.491478
-1.127779 0.815198 -0.445085
-0.297081 -0.001127 -0.445085
-0.012867 1.500000 -0.018764
-0.500494 0.842844 -0.299311
0.330204 0.026520 -0.299311
0.051225 1.500000 -0.020333
-1.119843 0.814713 -0.022943
-0.289145 -0.001611 -0.022943
-0.004840 1.500000 -0.022943
-1.263794 0.820240 -0.462309
-0.433097 0.003915 -0.462309
-0.008208 1.500000 -0.037421
-0.698087 0.817598 0.336394
0.132611 0.001273 0.336394
-0.009269 1.500000 0.052635
-1.203379 0.833088 -0.305851
-0.372681 0.016763 -0.305851
0.048558 1.500000 -0.025025
-0.854639 0.806285 -0.032521
-0.023941 -0.010039 -0.032521
-0.023941 1.500000 -0.032521
-1.116668 0.814886 0.127153
-0.285970 -0.001438 0.127153
-0.001698 1.500000 -0.014984
-1.592180 0.807214 0.287009
-0.761482 -0.009111 0.287009
-0.047170 1.500000 0.001284
-0.646550 0.836183 -0.137581
0.184147 0.019858 -0.137581
0.044027 1.500000 0.002539
-0.837819 0.818091 0.327292
-0.007121 0.001767 0.327292
-0.007121 1.500000 0.043627
-1.461340 0.802575 -0.004564
-0.630642 -0.013750 -0.004564
-0.534005 0.829062 0.461922
0.296693 0.012737 0.461922
0.015104 1.500000 0.039540
-1.412001 0.810264 -0.407336
-0.581303 -0.006061 -0.407336
-0.011008 1.500000 0.020386
-1.587895 0.807930 0.033953
-0.757197 -0.008394 0.033953
-0.043224 1.500000 0.033953
-0.386384 0.827189 0.059676
0.444314 0.010864 0.059676
0.021399 1.500000 0.059676
-1.067578 0.841328 0.485616
-0.236880 0.025004 0.485616
0.042386 1.500000 0.066717
-0.246895 0.826634 0.026552
0.583803 0.010310 0.026552
0.019707 1.500000 0.026552
-1.308997 0.802484 0.042432
-0.478299 -0.013840 0.042432
-0.683283 0.815036 -0.248760
0.147414 -0.001289 -0.248760
0.005292 1.500000 0.035484
-1.434980 0.802267 -0.229097
-0.604282 -0.014058 -0.229097
-0.030959 1.500000 0.057565
-1.592102 0.809728 -0.191118
-0.761404 -0.006597 -0.191118
-0.048282 1.500000 -0.048493
-1.166142 0.800522 0.431369
-0.335444 -0.015803 0.431369
-0.524965 0.826261 -0.111319
0.305733 0.009936 -0.111319
0.023614 1.500000 0.029740
-0.374637 0.834157 0.069939
0.456061 0.017833 0.069939
0.035125 1.500000 0.069939
-1.149653 0.807414 -0.179731
-0.318955 -0.008910 -0.179731
-0.033268 1.500000 -0.036888
-0.128047 0.809033 0.103269
0.702651 -0.007291 0.103269
-0.010800 1.500000 -0.039421
-1.422435 0.816949 0.339437
-0.591737 0.000624 0.339437
-0.023973 1.500000 0.055555
-0.683283 0.820404 0.434875
0.147415 0.004080 0.434875
0.005801 1.500000 0.010033
-0.211523 0.856753 -0.348353
0.619175 0.040428 -0.348353
0.066484 1.500000 -0.072008
-1.514224 0.820286 -0.127293
-0.683526 0.003961 -0.127293
0.024599 1.500000 0.014332
-0.664675 0.829189 0.433452
0.166023 0.012864 0.433452
0.025241 1.500000 0.011105
-1.475701 0.829430 -0.430963
-0.645003 0.013105 -0.430963
0.058793 1.500000 -0.008685
-0.853190 0.809923 -0.196993
-0.022492 -0.006402 -0.196993
-0.022492 1.500000 -0.054387
-0.210998 0.847341 -0.257612
0.619700 0.031017 -0.257612
0.063445 1.500000 0.020515
-1.550109 0.808485 0.226289
-0.719411 -0.007839 0.226289
-0.005701 1.500000 -0.059195
-1.532862 0.815898 -0.107607
-0.702164 -0.000427 -0.107607
0.008038 1.500000 0.034434
-1.495419 0.826514 0.301899
-0.664721 0.010190 0.301899
0.040456 1.500000 0.019828
-1.304618 0.800688 0.411130
-0.473920 -0.015636 0.411130
-1.303070 0.800975 -0.257912
-0.472373 -0.015350 -0.257912
-0.679417 0.816686 0.400783
0.151281 0.000362 0.400783
0.009315 1.500000 -0.025114
-0.833092 0.822016 -0.344685
-0.002394 0.005692 -0.344685
-0.002394 1.500000 -0.061763
-0.359301 0.837850 0.390784
0.471397 0.021526 0.390784
0.051510 1.500000 -0.029102
LINES 100 382
3 0 1 2
3 3 4 5
3 6 7 8
3 9 10 11
3 12 13 14
3 15 16 17
3 18 19 20
3 21 22 23
3 24 25 26
3 27 28 29
2 30 31
3 32 33 34
3 35 36 37
3 38 39 40
3 41 42 43
2 44 45
2 46 47
3 48 49 50
3 51 52 53
3 54 55 56
3 57 58 59
3 60 61 62
2 63 64
3 65 66 67
3 68 69 70
3 71 72 73
2 74 75
3 76 77 78
3 79 80 81
3 82 83 84
3 85 86 87
3 88 89 90
3 91 92 93
3 94 95 96
3 97 98 99
2 100 101
3 102 103 104
3 105 106 107
3 108 109 110
3 111 112 113
3 114 115 116
3 117 118 119
2 120 121
2 122 123
3 124 125 126
2 127 128
3 129 130 131
2 132 133
3 134 135 136
4 137 138 139 140
2 141 142
3 143 144 145
2 146 147
2 148 149
3 150 151 152
3 153 154 155
2 156 157
3 158 159 160
3 161 162 163
3 164 165 166
3 167 168 169
3 170 171 172
3 173 174 175
3 176 177 178
3 179 180 181
3 182 183 184
3 185 186 187
3 188 189 190
2 191 192
3 193 194 195
3 196 197 198
3 199 200 201
3 202 203 204
3 205 206 207
3 208 209 210
2 211 212
3 213 214 215
3 216 217 218
3 219 220 221
2 222 223
3 224 225 226
3 227 228 229
3 230 231 232
3 233 234 235
3 236 237 238
3 239 240 241
3 242 243 244
3 245 246 247
3 248 249 250
3 251 252 253
3 254 255 256
3 257 258 259
3 260 261 262
3 263 264 265
3 266 267 268
2 269 270
2 271 272
3 273 274 275
3 276 277 278
3 279 280 281
CELL_DATA 100
SCALARS Radiative_path_type float 1
LOOKUP_TABLE path_type
0.5
0.5
0.5
0.5
0.5
0.5
0.5
0.5
0.5
0.5
1.0
0.5
0.5
0.5
0.5
1.0
1.0
0.5
0.5
0.5
0.5
0.5
1.0
0.5
0.5
0.5
1.0
0.5
0.5
0.5
0.5
0.5
0.5
0.5
0.5
1.0
0.5
0.5
0.5
0.5
0.5
0.5
1.0
1.0
0.5
1.0
0.5
1.0
0.5
0.75
1.0
0.5
1.0
1.0
0.5
0.5
1.0
0.5
0.5
0.5
0.5
0.5
0.5
0.5
0.5
0.5
0.5
0.5
1.0
0.5
0.5
0.5
0.5
0.5
0.5
1.0
0.5
0.5
0.5
1.0
0.5
0.5
0.5
0.5
0.5
0.5
0.5
0.5
0.5
0.5
0.5
0.5
0.5
0.5
0.5
1.0
1.0
0.5
0.5
0.5
LOOKUP_TABLE path_type 5
1.0 0.0 0.0 1.0
0.0 1.0 0.0 1.0
0.0 0.0 1.0 1.0
0.0 1.0 1.0 1.0
1.0 1.0 0.0 1.0
